246
Lattice="10.140377178 0.0 0.0 0.0 8.78182424 0.0 0.0 0.0 30.131127158" Properties=species:S:1:pos:R:3:initial_charges:R:1:forces:R:3 NELECT0=1456.0 NELECT=1456.0 U_vs_SHE=1.9853972270984954 stress="0.011305551313659512 0.0005672470738876482 -0.0007081678669318403 0.0005672470738876482 0.010947482176616717 0.0010450033899283822 -0.0007081678669318403 0.0010450033899283822 0.005209743976810875" free_energy=-1808.58598951 energy=-1808.45832827 pbc="T T T"
Cu       7.01435000       1.18829000       9.80289000      -0.02434200      -0.43743500       0.22120900       0.36268900
Cu       9.52853000       1.30890000       9.89738000      -0.04094400      -0.15241300      -0.22143700       0.22605300
Cu       1.92963000       1.24428000      10.08520000      -0.05547000      -0.49454200      -0.26396200      -1.14542100
Cu       4.30827000       1.15529000       9.70357000      -0.01491900       0.67800300       0.15697600       0.56031700
Cu       8.16542000       3.46619000       9.93387000      -0.06924700       0.20759100      -0.64551500       0.02338300
Cu       0.56259000       3.45476000       9.89481000      -0.03840400       0.53575400      -0.45287300       0.16184300
Cu       3.10719000       3.43002000       9.81099000       0.00056400       0.26598500      -0.07625900       0.20344400
Cu       5.66680000       3.42243000       9.85774000      -0.04177100       0.04631700      -0.43593100      -0.00059300
Cu       9.54277000       5.50670000       9.96038000       0.00988700      -0.55646000       0.92696800      -0.45412700
Cu       1.93546000       5.62673000       9.96244000      -0.01431500      -0.42362000      -0.19204600      -0.25391500
Cu       4.45151000       5.63600000       9.98745000      -0.07424300       0.04982400      -0.05200600      -0.21151600
Cu       6.94735000       5.52075000      10.10400000      -0.04955600      -0.23615200       0.63286600      -0.40755100
Cu       0.40624000       7.86637000       9.87071000      -0.02233000       0.61498300      -0.34893200       0.16749400
Cu       3.02808000       7.75042000       9.86592000       0.00277000       0.44835200       0.45908500      -0.08543900
Cu       5.70338000       7.77336000       9.78185000      -0.01310400      -0.60898200       0.14407900       0.58208400
Cu       8.05562000       7.74211000       9.87921000      -0.01258300       0.84693700       0.00212900       0.16142900
Cu       5.70547000       1.97081000      11.97700000       0.02160800       0.24527200      -0.49434800      -0.48760000
Cu       8.27824000       1.86216000      11.92560000       0.02157700       0.00819200       0.28334000       0.14900300
Cu       0.76452000       1.91042000      12.00300000       0.01713200      -1.05075300       0.02060400       0.07675000
Cu       3.20008000       1.93930000      11.92880000       0.01633900       0.46007700      -0.00871600       0.28398400
Cu       7.02802000       4.11066000      12.03140000       0.01282700      -0.12759000      -0.24418200      -0.04300000
Cu       9.57131000       4.15502000      11.93820000       0.02758900      -0.49663600      -0.82582900       0.46585500
Cu       1.98925000       4.10330000      11.94410000       0.03564400      -0.17672600       0.10316000       0.02294500
Cu       4.51576000       4.10518000      11.87400000       0.02175700      -0.46103700      -0.01056200       0.48998600
Cu       8.20185000       6.37463000      12.04620000       0.01947900       0.11125500      -0.65469300      -0.49366900
Cu       0.58977000       6.20790000      11.93930000       0.02582500       0.50682700       0.66847200       0.19186200
Cu       3.21554000       6.37538000      11.91460000       0.01128100      -0.47776400      -0.36176500       0.53105200
Cu       5.60305000       6.30826000      12.11400000       0.01413800       0.87078900       0.22648600      -0.93980800
Cu       9.51260000       8.40538000      12.00040000       0.02160500       0.06806000       0.63936000      -0.29763600
Cu       1.85658000       8.39675000      11.91060000       0.01725200       0.00312500       0.27655000       0.31479800
Cu       4.41857000       8.57656000      11.96470000       0.03152600       0.21215300      -0.21291300      -0.49484000
Cu       7.04150000       8.50529000      11.96540000       0.02573900      -0.85287800       0.16110100      -0.18433500
Cu       5.70396000       0.36591000      14.03060000       0.03475400       0.03640300       0.02554700      -0.08415200
Cu       8.23906000       0.36591000      14.03060000      -0.01984600       0.02469200       0.05854700       0.06120000
Cu       0.63377000       0.36591000      14.03060000       0.00486400       0.04604100       0.00484800      -0.01963700
Cu       3.16887000       0.36591000      14.03060000       0.01026100      -0.11730300       0.03693300      -0.10386400
Cu       6.97151000       2.56137000      14.03060000       0.00488000       0.08929200      -0.04471000       0.02533400
Cu       9.50660000       2.56137000      14.03060000       0.02687600      -0.00417100       0.03551200      -0.15734100
Cu       1.90132000       2.56137000      14.03060000      -0.02919300       0.17022300       0.11013800       0.16001700
Cu       4.43642000       2.56137000      14.03060000       0.00582600      -0.05835200       0.07204800      -0.03688200
Cu       8.23906000       4.75682000      14.03060000       0.00170100       0.16388600       0.03720300       0.17215100
Cu       0.63377000       4.75682000      14.03060000       0.00184000       0.08883800      -0.02929900       0.00250300
Cu       3.16887000       4.75682000      14.03060000       0.00899800       0.11460300       0.06557500      -0.13871300
Cu       5.70396000       4.75682000      14.03060000       0.00654900      -0.04744600      -0.12839500       0.18463100
Cu       9.50660000       6.95228000      14.03060000       0.00468000       0.15319400      -0.03268300       0.24441600
Cu       1.90132000       6.95228000      14.03060000       0.02647800      -0.02556800      -0.05151300      -0.14577900
Cu       4.43642000       6.95228000      14.03060000      -0.02662700      -0.32743500       0.23590900       0.46303900
Cu       6.97151000       6.95228000      14.03060000       0.00077700      -0.05371400       0.16691500       0.41471300
Cu       6.97151000       1.09773000      16.10050000       0.00556700       0.05306500       0.16305900       0.03264900
Cu       9.50660000       1.09773000      16.10050000       0.00451200       0.02248400       0.13401000      -0.09950000
Cu       1.90132000       1.09773000      16.10050000      -0.01597600       0.15327500       0.08629300       0.01916100
Cu       4.43642000       1.09773000      16.10050000       0.03735800      -0.02684800       0.07224500       0.21054200
Cu       8.23906000       3.29318000      16.10050000       0.02794100      -0.02629300       0.03761300       0.12662400
Cu       0.63377000       3.29318000      16.10050000      -0.02300900       0.15234400      -0.00464300      -0.28309300
Cu       3.16887000       3.29318000      16.10050000       0.02993500       0.07703000      -0.06477100       0.20322900
Cu       5.70396000       3.29318000      16.10050000      -0.02192100       0.02436800       0.12848100       0.02301500
Cu       9.50660000       5.48864000      16.10050000      -0.02230400       0.12753800       0.24616600      -0.24101400
Cu       1.90132000       5.48864000      16.10050000       0.03257500       0.07727900       0.04132300       0.19841800
Cu       4.43642000       5.48864000      16.10050000       0.00309800      -0.06662000      -0.00374000       0.08509300
Cu       6.97151000       5.48864000      16.10050000       0.00454300       0.31139000      -0.09824800      -0.41430600
Cu       0.63377000       7.68410000      16.10050000       0.02248400       0.14749900      -0.00988200       0.00201800
Cu       3.16887000       7.68410000      16.10050000       0.00085800       0.14986700      -0.07565700      -0.07374600
Cu       5.70396000       7.68410000      16.10050000       0.00037300       0.04511600       0.04274500      -0.03165100
Cu       8.23906000       7.68410000      16.10050000      -0.02563100       0.10541700       0.01323800      -0.31289300
Cu       5.75469000       1.93529000      18.16910000       0.02603500       0.31895000      -0.53835100       0.25486900
Cu       8.37853000       1.89026000      18.21470000       0.02087500      -0.30459100       0.24444000      -0.16289000
Cu       0.73248000       1.87312000      18.13590000       0.02641300      -0.00428400      -0.21552600       0.44024000
Cu       3.29897000       1.84580000      18.33130000       0.03112500      -0.24643000       0.20171100      -0.60251900
Cu       6.99316000       4.10254000      18.21410000       0.01454800       0.38631300      -0.79607700      -0.83989700
Cu       9.66136000       4.12220000      18.07120000       0.01935600      -0.65474300      -0.41022400       0.52699100
Cu       1.95747000       3.99957000      18.19260000       0.02602800       0.36981800       0.36059300       0.02484300
Cu       4.46997000       4.01661000      18.21420000       0.01376800      -0.10847900       0.17709400      -0.21097600
Cu       8.33547000       6.28702000      18.15410000       0.02410100      -0.03000900      -0.22274500      -0.02703300
Cu       0.75637000       6.28866000      18.22350000       0.01400600      -0.01101700       0.20121000      -0.72236800
Cu       3.28621000       6.27285000      18.24250000       0.02820200       0.10852800      -0.43588700      -0.22452400
Cu       5.86738000       6.13343000      18.07490000       0.02152100      -0.85052000       1.04228600       0.79136800
Cu       9.56415000       8.45664000      18.10170000       0.01282300       0.47688000       0.19173000       0.05058500
Cu       2.11013000       8.46748000      18.14200000       0.00823900      -0.81740600       0.15124200       0.03296800
Cu       4.55143000       8.43301000      18.18190000       0.02238300       0.15369800      -0.08478200      -0.02724100
Cu       7.09852000       8.44800000      18.10530000       0.03115000      -0.53667700      -0.03051600       0.47751400
Cu       5.79037000       0.34358000      20.16730000      -0.05517400       0.22373500       0.32507500       0.09059700
Cu       8.32571000       0.38959000      20.13490000      -0.04026000      -0.41636800       0.32348500       0.33604900
Cu       0.66187000       0.40709000      20.22990000      -0.02602000       0.30649300       0.44066300      -0.27484800
Cu       3.19113000       0.44235000      20.26860000      -0.01958500       0.36030400      -0.06769100       0.15254200
Cu       7.06569000       2.65440000      20.21310000      -0.02467900      -0.18363100      -0.70138800       0.00155200
Cu       9.64677000       2.66572000      20.30430000      -0.00529000      -0.10079300      -0.28329300      -0.56021400
Cu       2.00528000       2.67145000      20.32560000      -0.02082500      -0.30070700      -0.28786800      -0.24443900
Cu       4.52102000       2.57711000      20.43560000      -0.01127800       0.13899000      -0.20030600      -0.49271100
Cu       8.24364000       4.72726000      20.07700000      -0.05952100       0.73605400       0.40346300       0.46657700
Cu       0.63417000       4.88522000      20.11180000      -0.01329500       0.29978000      -0.20937300       0.65048200
Cu       3.32471000       4.72584000      20.29960000      -0.00752300      -0.64019200       0.51919300      -0.33243900
Cu       5.71612000       4.74616000      20.20760000      -0.02598600       0.20923900       0.13950300       0.18722700
Cu       9.53496000       7.12927000      20.10330000      -0.02210100       0.15117400      -0.86715700       0.57441400
Cu       2.01607000       7.10403000      20.13780000      -0.01831400      -0.15801900      -0.53810300       0.54033800
Cu       4.56002000       7.03836000      20.30830000      -0.02296900      -0.17375500      -0.28424500      -0.51173100
Cu       7.02826000       6.80462000      20.33600000      -0.01224200       0.01455600       0.77693600      -0.58596800
O        1.18024000       4.79210000       2.54571000      -1.32835200      -1.51686000      -2.17077300      -2.19876300
O        6.70261000       7.41596000       4.11025000      -1.30741100       0.81212000       0.48651500       0.15730400
O        8.71046000       2.56196000       1.67743000      -1.28331200       0.82167500       0.52071800      -0.51341500
O        0.65130000       1.69073000      24.30760000      -1.35823800       0.76794300      -1.20933800       0.52367700
O        3.18491000       2.49857000      23.54820000      -1.27691700       0.81217900       1.29428900       0.83630400
O        1.84000000       3.57645000       6.59554000      -1.30562900      -1.45100800      -2.10284300       0.07574800
O        8.64909000       3.37688000      23.08780000      -1.31479100       0.34782900       0.16552500       1.83726500
O        9.16868000       0.33882000       3.72134000      -1.34429100      -2.56206300       0.01541300       0.12464700
O        9.38945000       7.77192000      28.26440000      -1.26482400       1.11297000       1.27723900      -1.74906100
O        3.29861000       2.56868000      26.99730000      -1.31974300       0.75163100       0.88822200      -0.45035100
O        1.06836000       1.65281000       1.17953000      -1.31469700       0.72067900      -0.87444600      -1.28836800
O        1.35143000       6.42117000      27.62290000      -1.25520500       0.71753000      -1.16945600      -0.77790700
O        1.92434000       7.89999000       6.46545000      -1.33682700       1.25980600      -1.26753100      -0.16066000
O        1.20404000       4.28424000      26.29920000      -1.31815300      -0.36271800      -1.29146100      -0.74390700
O        4.15773000       8.35971000       3.64388000      -1.27665000       1.34408000      -0.10435600      -0.09987600
O        5.65841000       2.38916000       6.15405000      -1.23013600      -0.37783400      -0.50556000       2.23906900
O        7.73879000       2.43107000       4.59770000      -1.35775900       1.18816900       0.17095100      -0.60409900
O        4.79312000       7.43804000      29.45490000      -1.37134000      -1.81474500      -0.45989900      -1.19671500
O        2.33493000       7.86181000      23.32850000      -1.30422600      -0.91983200       1.10793800      -0.77117100
O        6.40474000       6.76962000       1.13898000      -1.26133700       1.26254300       0.05621100       0.23276300
O        5.69046000       3.47226000      25.52030000      -1.33482400      -0.87469400      -2.74554100      -0.37860000
O        7.37442000       4.44802000      29.76990000      -1.30981000      -0.51016900       0.34999500      -0.48787000
O        5.16953000       1.24276000      28.88480000      -1.30908300       1.00082600       0.07358900       0.53020700
O        1.59127000       5.00739000      23.56990000      -1.35279800       0.51320900       0.50746700      -2.71707800
O        8.26523000       5.27799000       7.04371000      -1.24040000      -0.30515800      -1.90017300       1.70783900
O        7.32373000       6.03757000      27.60780000      -1.37545500       0.44991200       0.68221100      -0.85773000
O        2.27569000       8.18852000       0.91402000      -1.31313400       0.43198300      -0.15283000      -0.06018700
O        7.38008000       2.41537000      27.33760000      -1.34891500       0.14692900       0.13402600      -0.82940600
O        1.18289000       1.70008000       4.02138000      -1.27851000       1.70667000       0.34629800      -0.25296500
O        4.20378000       5.82668000      23.12720000      -1.27440000      -0.18990300       0.14417200       0.40637300
O        3.67604000       3.73140000       2.35928000      -1.30479300      -0.14712500       0.23670500      -0.05520600
O        3.18177000       1.29373000       5.83904000      -1.31469500      -1.56795800       0.50613400       0.80924800
O        5.58800000       1.61025000       1.65025000      -1.27581700      -0.37592700      -0.67804600      -0.72851700
O        3.60277000       5.68744000       6.96049000      -1.31704200       1.24541900      -1.42105000       0.76873100
O        7.29012000       8.11209000      23.79310000      -1.24441200      -0.36205700       0.28924300      -1.32179800
O        5.97986000       5.13192000       5.59303000      -1.31093600      -0.55626100       0.38410100       0.84260300
O        9.33198000       8.33276000       6.90182000      -1.15119500      -0.06932900       1.67534800       2.27999500
O        0.39384000       6.11620000       0.36071000      -1.31713100       0.28514900       0.17316100       1.90038800
O        6.39940000       1.90762000      23.45080000      -1.30461100       1.97397500       0.53739400       0.94848800
O        9.03654000       8.14314000       1.24993000      -1.34680700      -0.91043200      -1.35797400      -0.90648500
O        9.76759000       4.04841000       4.88224000      -1.31320200      -0.35137400       0.71720300      -0.46344100
O        5.35890000       6.58625000      25.81370000      -1.32251200      -1.24772900       0.08890400      -1.23045800
O        6.42692000       4.27702000       3.08801000      -1.30291600      -0.70429700       0.33621800       0.65043500
O        4.04976000       4.31769000      29.71320000      -1.30876000      -0.84639500       0.52672700      -0.85911500
O        1.12059000       2.82219000      28.92140000      -1.36261900      -1.10758700       0.53285200       1.84070900
O       10.03630000       1.40458000      26.96830000      -1.28526600      -2.06384900       0.75582200      -0.24903300
O        9.82068000       7.42554000      24.15880000      -1.32655700       1.93021900       0.47900800      -0.33359400
O        3.21593000       8.51593000      25.79150000      -1.34132800      -1.19626700       1.21968000      -0.66854400
O        9.04048000       5.17365000      25.60080000      -1.33549400      -0.80116800       0.79677600      -0.25201300
O        1.73409000       7.21217000       3.46422000      -1.32648500      -0.99133000      -0.42181400      -2.29490400
H        0.71532000       4.85542000       1.62377000       0.65560800       1.08187600       0.31721400       1.91783700
H        1.32804000       5.68322000       2.83354000       0.69113200       0.28349000       1.68006600       0.28338800
H        7.56448000       7.87552000       4.23004000       0.67233000      -0.39006800      -0.07912900      -0.34296800
H        6.64603000       6.80502000       4.85081000       0.63462700      -0.01087500      -0.28385700      -0.16166000
H        5.07015000       7.98108000       3.71136000       0.64603400      -0.54697500      -0.26055500       0.50367700
H        8.17373000       1.83519000       1.94359000       0.65991000      -1.21537900      -0.74777000       0.35004000
H        1.56275000       1.74849000      23.95440000       0.67862400      -0.42488900       0.58520700       0.17384800
H        0.04462000       2.18366000      23.77540000       0.66702900      -0.38894400       0.65042800      -0.75809300
H        3.44363000       3.31100000      24.06490000       0.64238300      -0.17789300      -1.38442300       0.20599700
H        3.01560000       2.97017000      22.73650000       0.61795700      -0.43896900      -0.07100600      -1.07014900
H       10.05530000       0.56250000       3.95597000       0.69990300       1.70529500       0.39913500       0.32255900
H        1.24228000       3.46789000       7.35508000       0.60387800       0.33355000       0.17973900      -0.23034800
H        1.26009000       8.03454000       7.12176000       0.64537800      -1.00950000       0.34514500       0.33487200
H        8.92159000       3.98177000      23.84530000       0.66842200      -0.53854700      -0.35617000      -0.58630900
H        1.55355000       0.74299000       1.10910000       0.67206400      -0.58349500       1.07030200       0.30641000
H        8.65111000       1.14282000       4.05358000       0.67138800       0.38495000      -0.82848100      -0.39127900
H       10.13300000       7.34431000      27.67630000       0.64635000      -0.94580000       0.37248700       1.46140000
H        3.28025000       1.69745000      26.59710000       0.66715300       0.07385500      -0.78572800      -0.35159800
H        4.04692000       3.04474000      26.53760000       0.66323800      -0.71780300      -0.59418700       0.56713800
H        7.23897000       7.24092000       1.29920000       0.64434600       0.24760200       0.56806600      -0.64103900
H        1.19531000       1.97333000       0.22179000       0.66012200      -0.45532600       0.23605700       1.08394600
H        4.47160000       1.70497000      28.44460000       0.63983700      -0.95307400       0.51232900      -0.48800200
H        2.19771000       6.74794000      27.27340000       0.58889600      -0.47449700       0.23102900       0.19721800
H        1.32375000       5.46536000      27.22060000       0.66577000      -0.03517200       1.47706800       0.63702400
H        2.34571000       4.35083000       6.73438000       0.69378500       1.19570900       1.87497100       0.36517400
H        2.46617000       8.71136000       6.41095000       0.67465000       0.10828000       0.47281100      -0.35525800
H        1.57621000       3.40890000      26.50280000       0.65876100       0.51602200       0.28042400       0.19062700
H        0.23405000       4.13552000      26.24260000       0.67992800       0.27339100       0.63256300      -0.06159000
H        8.91957000       3.80439000      22.27730000       0.61676700       0.17853200       0.46617700      -0.49183500
H        4.42758000       0.23260000       2.99182000       0.64982900      -0.43660300       0.80563500      -0.52819000
H        5.75046000       2.17680000       7.11891000       0.56587700       0.16052600      -0.20328000      -1.01444900
H        8.38109000       3.13039000       4.90670000       0.67850900      -0.27186100      -0.66765800      -0.38370000
H        7.01683000       2.30970000       5.20503000       0.67850600      -0.46389200       0.05962900       0.61178700
H        4.40080000       6.55074000      29.27210000       0.65325700       0.41652700       0.71417300       0.17069000
H        5.44984000       7.27478000       0.00137000       0.72162900       0.53597300      -0.28431100       0.79620800
H        3.08626000       7.31202000      23.05100000       0.69052500       0.29442800      -0.10846500      -0.09712000
H        2.08862000       8.53194000      22.64280000       0.58881800       0.67066700      -0.86630800       0.55782600
H        5.27871000       3.27134000       6.23736000       0.66000300       0.06571700       0.65189100      -0.72907600
H        6.34305000       6.36426000       1.99666000       0.64493300      -0.70590000      -0.78533100       0.83929200
H        5.91003000       4.37680000      25.47560000       0.67371500       0.29232800       1.98914400      -0.72617700
H        5.81177000       2.92839000      24.67570000       0.67103100       0.06670700       1.21989100       1.02784800
H        9.54184000       8.74779000      27.99960000       0.62884300      -0.41437300      -1.77868500       0.36948600
H        7.08290000       5.18389000       0.19299000       0.64512400      -0.00050400       0.09765800       0.39911300
H        7.81959000       3.82028000       0.20850000       0.67310100       0.30324800      -0.45303200       0.39947100
H        4.92539000       0.30656000      28.93820000       0.66667600      -0.09618400      -0.43200500      -0.13645000
H        1.37920000       4.65786000      24.41650000       0.68545300      -0.64701800      -0.18219900       1.99238000
H        8.91758000       4.71112000       6.54947000       0.66019000      -0.45968600       0.54834500      -0.07273800
H        7.30121000       5.30867000      28.25520000       0.71274100       0.38513800       0.18238800       0.50346100
H        7.90658000       4.67915000       7.81776000       0.54270600       1.05538900       1.41015400      -1.82653100
H        1.08011000       5.80880000      23.35240000       0.65884600       0.10225900      -0.38149200       0.79856600
H        7.94846000       6.78161000      27.87390000       0.67667000      -0.41043600      -0.92206700       0.21951200
H        3.10792000       8.09486000       0.41520000       0.65403400      -0.07792000      -0.11323000       0.01258500
H        1.67955000       7.48194000       0.60594000       0.67794700      -0.07129500      -0.30945300      -0.14608700
H        6.90793000       2.88771000      26.61500000       0.64945700       0.35921400      -0.10366100       0.27169900
H        2.06162000       1.43985000       4.43403000       0.64338800      -1.09364100       0.42785400      -0.89745200
H        3.40733000       5.27728000      23.05540000       0.66734700      -0.62270100       0.07275100       0.55869700
H        6.64046000       1.89749000      27.67980000       0.68706500      -0.00288600      -0.42732600       0.74947600
H        4.51991000       5.82108000      22.22820000       0.56310400       0.74036300      -0.05510200      -0.81256100
H        4.15312000       4.35045000       2.93044000       0.62162200      -0.03303200      -0.16659900      -0.37930200
H        2.78211000       4.13009000       2.23051000       0.67041400      -0.07826900      -0.13815900       0.56900400
H        2.72391000       2.10354000       6.21595000       0.66442500       0.84706000      -0.67579200      -0.46915300
H        5.12981000       1.54217000       0.77920000       0.64423800       0.67470900      -0.17568400       0.30148400
H        4.12932000       1.40732000       5.87149000       0.66000700       0.63429900       0.38461900      -0.21181100
H        5.31178000       2.48085000       1.92569000       0.65915700      -0.26250100       0.72679900       0.47057700
H        2.01637000       2.91634000      28.71120000       0.68463500       2.49040300       0.63373300      -0.30748100
H        4.04042000       5.66024000       7.84890000       0.55331500      -0.53572400       0.12251100      -0.77065800
H        3.14306000       6.51690000       6.90817000       0.71911500      -1.02099900       1.56575000      -0.22137400
H        7.06699000       0.27551000      23.64210000       0.67404900      -0.20422800      -0.00379700       0.59352600
H        6.80997000       5.12442000       6.10549000       0.64892800       0.30612100       0.07362900      -0.05139700
H        9.23024000       7.47325000       7.28215000       0.60324700      -0.30819600      -1.88941300      -0.41772700
H        5.37043000       5.70480000       6.09772000       0.66106700      -0.13907300      -0.38993500      -0.33420100
H        7.10554000       7.78592000      22.88630000       0.55020200       0.16541100      -0.25241000       0.68728100
H        9.24874000       0.00325000       7.80949000       0.51006800       0.05255800       0.10559100      -1.74482100
H        9.83988000       6.68734000       0.75162000       0.66679900       0.17044000       0.24937200       0.34844000
H        0.05860000       6.04481000      29.63030000       0.67413600      -0.25026000      -0.37647200      -2.28800200
H        1.37455000       2.10581000       3.12631000       0.65595500      -0.15225800      -0.68663400       1.03654900
H        9.28321000       8.46320000       2.10721000       0.70684500       0.20362300       0.70148200       1.55851400
H        0.45484000       3.66870000       5.20186000       0.66929900       0.21758600      -0.19735800      -0.37400500
H        9.30888000       0.01184000       0.61785000       0.65924100       0.25382800       0.51562900      -0.61816000
H        5.90311000       1.91662000      22.64640000       0.62260400      -0.51556500       0.19024300      -0.96950800
H        9.91548000       4.24911000       3.91168000       0.66235500       0.21809200      -0.16560500       1.01201400
H        6.01553000       6.54900000      26.49660000       0.69323300       1.07723700      -0.05313300       1.26236600
H        5.68266000       7.22499000      25.16660000       0.62663900       0.26807500      -0.18367700       0.02250300
H        9.55953000       2.09279000       1.49985000       0.67371200       0.30440400       0.53264300      -0.00071100
H        6.08605000       4.52350000       3.98750000       0.63224200       0.60087100      -0.13770100      -1.10225400
H        3.71324000       4.19973000       0.47051000       0.65585900      -0.00733200      -0.08790600       0.63558200
H        6.87548000       3.43389000       3.26854000       0.66681300       0.20068800       0.13698300      -0.05153700
H        4.94935000       4.03644000      29.77990000       0.64690500       1.17382700      -0.32945700       0.01336500
H        0.79365000       2.36523000      28.16940000       0.69172900      -1.16673500      -1.10405300      -1.27791000
H        7.27170000       2.43113000      23.31390000       0.67618200      -1.36015200      -0.53072500      -0.18940900
H        0.19805000       1.37235000      26.03980000       0.65596700      -0.16374400      -0.07529600       0.20029200
H        9.04746000       1.72668000      26.94130000       0.63298900       1.71007600      -0.44063800       0.17906400
H        0.55935000       7.90750000      24.12240000       0.64104000      -1.49228100      -0.83738100       0.27738500
H        9.14469000       8.05703000      23.87970000       0.67871600      -0.34582300      -0.11453000       0.23737900
H        3.84060000       7.81478000      25.94330000       0.66678300       0.76266600      -0.77415100      -0.05869700
H        2.85870000       8.43094000      24.86520000       0.65236000       0.67372300      -0.20957000       1.26666800