 vasp.6.4.3 19Mar24 (build Sep  4 2024 12:23:58) complex                         
 executed on              LinuxNV date 2025.10.06  14:29:15
 running    4 mpi-ranks, with    1 threads/rank, on    1 nodes
 distrk:  each k-point on    2 cores,    2 groups
 distr:  one band on NCORE=   1 cores,    2 groups
 OpenACC runtime initialized ...    4 GPUs detected


--------------------------------------------------------------------------------------------------------


 INCAR:
   ENCUT = 800.000000
   SIGMA = 0.100000
   EDIFF = 1.00e-07
   ALGO = fast
   METAGGA = R2SCAN
   PREC = Accurate
   IBRION = -1
   ICHARG = 2
   ISMEAR = 0
   ISTART = 0
   KPAR = 2
   NELM = 160
   NPAR = 2
   NCORE = 1
   LAECHG = .TRUE.
   LASPH = .TRUE.
   LVHAR = .TRUE.
   LMIXTAU = .TRUE.
   LREAL = Auto

 POTCAR:    PAW_PBE Cu 22Jun2005                  
 POTCAR:    PAW_PBE O_h 06Feb2004                 
 POTCAR:    PAW_PBE H_h 06Feb2004                 
 POTCAR:    PAW_PBE Cu 22Jun2005                  
   VRHFIN =Cu: d10 p1                                                                               
   LEXCH  = PE                                                                                      
   EATOM  =  1390.9808 eV,  102.2342 Ry                                                             
                                                                                                    
   TITEL  = PAW_PBE Cu 22Jun2005                                                                    
   LULTRA =        F    use ultrasoft PP ?                                                          
   IUNSCR =        1    unscreen: 0-lin 1-nonlin 2-no                                               
   RPACOR =    2.000    partial core radius                                                         
   POMASS =   63.546; ZVAL   =   11.000    mass and valenz                                          
   RCORE  =    2.300    outmost cutoff radius                                                       
   RWIGS  =    2.200; RWIGS  =    1.164    wigner-seitz radius (au A)                               
   ENMAX  =  295.446; ENMIN  =  221.585 eV                                                          
   ICORE  =        3    local potential                                                             
   LCOR   =        T    correct aug charges                                                         
   LPAW   =        T    paw PP                                                                      
   EAUG   =  586.980                                                                                
   DEXC   =    0.000                                                                                
   RMAX   =    2.344    core radius for proj-oper                                                   
   RAUG   =    1.300    factor for augmentation sphere                                              
   RDEP   =    2.302    radius for radial grids                                                     
   RDEPT  =    1.771    core radius for aug-charge                                                  
                                                                                                    
   Atomic configuration                                                                             
    9 entries                                                                                       
     n  l   j            E        occ.                                                              
     1  0  0.50     -8850.2468   2.0000                                                             
     2  0  0.50     -1062.3498   2.0000                                                             
     2  1  1.50      -916.8226   6.0000                                                             
     3  0  0.50      -114.6929   2.0000                                                             
     3  1  1.50       -72.1325   6.0000                                                             
     3  2  2.50        -5.0394  10.0000                                                             
     4  0  0.50        -4.6097   1.0000                                                             
     4  1  0.50        -4.0817   0.0000                                                             
     4  3  2.50        -1.3606   0.0000                                                             
   Description                                                                                      
     l       E           TYP  RCUT    TYP  RCUT                                                     
     2     -5.0393973     23  2.200                                                                 
     2     10.8846608     23  2.200                                                                 
     0     -4.6097109     23  2.200                                                                 
     0      8.2520465     23  2.200                                                                 
     1     -2.7211652     23  2.200                                                                 
     1     21.7055443     23  2.200                                                                 
     3      2.7211652     23  2.300                                                                 
  local pseudopotential read in
  partial core-charges read in
  partial kinetic energy density read in
  atomic valenz-charges read in
  non local Contribution for L=            2  read in
    real space projection operators read in
  non local Contribution for L=            2  read in
    real space projection operators read in
  non local Contribution for L=            0  read in
    real space projection operators read in
  non local Contribution for L=            0  read in
    real space projection operators read in
  non local Contribution for L=            1  read in
    real space projection operators read in
  non local Contribution for L=            1  read in
    real space projection operators read in
    PAW grid and wavefunctions read in
 
   number of l-projection  operators is LMAX  =            6
   number of lm-projection operators is LMMAX =           18
 
 POTCAR:    PAW_PBE O_h 06Feb2004                 
   VRHFIN =O: s2p4                                                                                  
   LEXCH  = PE                                                                                      
   EATOM  =   432.3788 eV,   31.7789 Ry                                                             
                                                                                                    
   TITEL  = PAW_PBE O_h 06Feb2004                                                                   
   LULTRA =        F    use ultrasoft PP ?                                                          
   IUNSCR =        1    unscreen: 0-lin 1-nonlin 2-no                                               
   RPACOR =    0.800    partial core radius                                                         
   POMASS =   16.000; ZVAL   =    6.000    mass and valenz                                          
   RCORE  =    1.100    outmost cutoff radius                                                       
   RWIGS  =    1.400; RWIGS  =    0.741    wigner-seitz radius (au A)                               
   ENMAX  =  700.000; ENMIN  =  500.000 eV                                                          
   ICORE  =        2    local potential                                                             
   LCOR   =        T    correct aug charges                                                         
   LPAW   =        T    paw PP                                                                      
   EAUG   =  888.804                                                                                
   DEXC   =    0.000                                                                                
   RMAX   =    1.128    core radius for proj-oper                                                   
   RAUG   =    1.300    factor for augmentation sphere                                              
   RDEP   =    1.125    radius for radial grids                                                     
   RDEPT  =    1.088    core radius for aug-charge                                                  
                                                                                                    
   Atomic configuration                                                                             
    4 entries                                                                                       
     n  l   j            E        occ.                                                              
     1  0  0.50      -514.6923   2.0000                                                             
     2  0  0.50       -23.9615   2.0000                                                             
     2  1  0.50        -9.0305   4.0000                                                             
     3  2  1.50        -9.5241   0.0000                                                             
   Description                                                                                      
     l       E           TYP  RCUT    TYP  RCUT                                                     
     0    -23.9615319     23  1.100                                                                 
     0    -25.3221145     23  1.100                                                                 
     1     -9.0304911     23  1.100                                                                 
     1     -5.4802209     23  1.100                                                                 
     2     -9.5240782      7  1.100                                                                 
  local pseudopotential read in
  partial core-charges read in
  partial kinetic energy density read in
  atomic valenz-charges read in
  non local Contribution for L=            0  read in
    real space projection operators read in
  non local Contribution for L=            0  read in
    real space projection operators read in
  non local Contribution for L=            1  read in
    real space projection operators read in
  non local Contribution for L=            1  read in
    real space projection operators read in
    PAW grid and wavefunctions read in
 
   number of l-projection  operators is LMAX  =            4
   number of lm-projection operators is LMMAX =            8
 
 POTCAR:    PAW_PBE H_h 06Feb2004                 
   VRHFIN =H: ultrasoft test                                                                        
   LEXCH  = PE                                                                                      
   EATOM  =    12.4884 eV,    0.9179 Ry                                                             
                                                                                                    
   TITEL  = PAW_PBE H_h 06Feb2004                                                                   
   LULTRA =        F    use ultrasoft PP ?                                                          
   IUNSCR =        0    unscreen: 0-lin 1-nonlin 2-no                                               
   RPACOR =    0.000    partial core radius                                                         
   POMASS =    1.000; ZVAL   =    1.000    mass and valenz                                          
   RCORE  =    0.800    outmost cutoff radius                                                       
   RWIGS  =    0.700; RWIGS  =    0.370    wigner-seitz radius (au A)                               
   ENMAX  =  700.000; ENMIN  =  350.000 eV                                                          
   RCLOC  =    0.701    cutoff for local pot                                                        
   LCOR   =        T    correct aug charges                                                         
   LPAW   =        T    paw PP                                                                      
   EAUG   = 1000.000                                                                                
   RMAX   =    0.819    core radius for proj-oper                                                   
   RAUG   =    1.000    factor for augmentation sphere                                              
   RDEP   =    0.817    radius for radial grids                                                     
   RDEPT  =    0.817    core radius for aug-charge                                                  
                                                                                                    
   Atomic configuration                                                                             
    2 entries                                                                                       
     n  l   j            E        occ.                                                              
     1  0  0.50        -6.4927   1.0000                                                             
     2  1  0.50        -3.4015   0.0000                                                             
   Description                                                                                      
     l       E           TYP  RCUT    TYP  RCUT                                                     
     0     -6.4927493     23  0.800                                                                 
     0      6.8029130     23  0.800                                                                 
     1     -6.8029130     23  0.800                                                                 
  local pseudopotential read in
  atomic valenz-charges read in
  non local Contribution for L=            0  read in
    real space projection operators read in
  non local Contribution for L=            0  read in
    real space projection operators read in
  non local Contribution for L=            1  read in
    real space projection operators read in
    PAW grid and wavefunctions read in
 
   number of l-projection  operators is LMAX  =            3
   number of lm-projection operators is LMMAX =            5
 
 Optimization of the real space projectors (new method)

 maximal supplied QI-value         = 16.25
 optimisation between [QCUT,QGAM] = [ 14.46, 28.93] = [ 58.58,234.33] Ry 
 Optimized for a Real-space Cutoff    1.35 Angstroem

   l    n(q)    QCUT    max X(q) W(low)/X(q) W(high)/X(q)  e(spline) 
   2     11    14.464     4.610    0.56E-04    0.10E-03    0.52E-06
   2     11    14.464     8.522    0.88E-04    0.16E-03    0.84E-06
   0     12    14.464    51.609    0.44E-04    0.29E-04    0.63E-06
   0     12    14.464    27.747    0.38E-04    0.27E-04    0.60E-06
   1     11    14.464    20.408    0.64E-04    0.66E-04    0.14E-06
   1     11    14.464    13.425    0.56E-04    0.59E-04    0.13E-06
 Optimization of the real space projectors (new method)

 maximal supplied QI-value         = 34.20
 optimisation between [QCUT,QGAM] = [ 14.37, 28.73] = [ 57.79,231.16] Ry 
 Optimized for a Real-space Cutoff    0.98 Angstroem

   l    n(q)    QCUT    max X(q) W(low)/X(q) W(high)/X(q)  e(spline) 
   0      8    14.366   280.207    0.54E-04    0.14E-03    0.22E-06
   0      8    14.366   228.978    0.55E-04    0.14E-03    0.22E-06
   1      8    14.366    86.127    0.24E-03    0.25E-03    0.26E-06
   1      8    14.366    65.368    0.24E-03    0.24E-03    0.26E-06
 Optimization of the real space projectors (new method)

 maximal supplied QI-value         = 47.24
 optimisation between [QCUT,QGAM] = [ 14.17, 28.82] = [ 56.25,232.56] Ry 
 Optimized for a Real-space Cutoff    0.95 Angstroem

   l    n(q)    QCUT    max X(q) W(low)/X(q) W(high)/X(q)  e(spline) 
   0      8    14.173    34.671    0.25E-03    0.45E-03    0.25E-06
   0      8    14.173    17.046    0.24E-03    0.43E-03    0.25E-06
   1      8    14.173     1.978    0.58E-04    0.22E-03    0.31E-06
 -----------------------------------------------------------------------------
|                                                                             |
|               ----> ADVICE to this user running VASP <----                  |
|                                                                             |
|     You enforced a specific xc type in the INCAR file but a different       |
|     type was found in the POTCAR file.                                      |
|     I HOPE YOU KNOW WHAT YOU ARE DOING!                                     |
|                                                                             |
 -----------------------------------------------------------------------------

  PAW_PBE Cu 22Jun2005                  :
 energy of atom  1       EATOM=-1390.9808
 kinetic energy error for atom=    0.0007 (will be added to EATOM!!)
  PAW_PBE O_h 06Feb2004                 :
 energy of atom  2       EATOM= -432.3788
 kinetic energy error for atom=    0.0500 (will be added to EATOM!!)
  PAW_PBE H_h 06Feb2004                 :
 energy of atom  3       EATOM=  -12.4884
 kinetic energy error for atom=    0.0035 (will be added to EATOM!!)
 
 
 POSCAR: Cu O  H
  positions in cartesian coordinates
  No initial velocities read in


 exchange-correlation table for R2SCAN
   RHO(1)=    0.500       N(1)  =     2000
   RHO(2)=  100.500       N(2)  =     4000
 


--------------------------------------------------------------------------------------------------------


 ion  position               nearest neighbor table
   1  0.692  0.135  0.325-  16 2.46   2 2.52   5 2.56  15 2.56  18 2.56   8 2.61  32 2.61  17 2.66
                             4 2.71
   2  0.940  0.149  0.328-  18 2.45   6 2.45  13 2.45   1 2.52   3 2.55   5 2.55  19 2.59  29 2.70
                            16 2.77
   3  0.190  0.142  0.335-  19 2.34  20 2.34   4 2.41  30 2.45   7 2.50  14 2.54   2 2.55   6 2.61
                            13 2.65
   4  0.425  0.132  0.322-   3 2.41  14 2.54   7 2.57  15 2.58  20 2.61  31 2.64   8 2.65   1 2.71
                            17 2.79
   5  0.805  0.395  0.330-  12 2.39   9 2.46  21 2.47   8 2.50   6 2.54  22 2.54   2 2.55   1 2.56
                            18 2.56
   6  0.055  0.393  0.328-   9 2.36  22 2.44   2 2.45   5 2.54   7 2.55  10 2.57  23 2.58   3 2.61
                            19 2.62
   7  0.306  0.391  0.326-  10 2.49   3 2.50  23 2.50   6 2.55   8 2.56   4 2.57  24 2.59  11 2.59
                            20 2.59
   8  0.559  0.390  0.327-  24 2.42  12 2.47   5 2.50  11 2.53   7 2.56  17 2.57   1 2.61   4 2.65
                            21 2.66
   9  0.941  0.627  0.331-   6 2.36  22 2.40  26 2.41   5 2.46  10 2.54  13 2.57  12 2.60  25 2.63
                            16 2.69
  10  0.191  0.641  0.331-  14 2.39  27 2.45  26 2.46   7 2.49  23 2.50  11 2.52   9 2.54   6 2.57
                            13 2.71
  11  0.439  0.642  0.331-  27 2.41  24 2.43  15 2.49  12 2.50  28 2.51  10 2.52   8 2.53  14 2.55
                             7 2.59
  12  0.685  0.629  0.335-  21 2.39   5 2.39  25 2.46   8 2.47  16 2.49  11 2.50  28 2.54  15 2.59
                             9 2.60
  13  0.040  0.896  0.328-  29 2.43   2 2.45  16 2.49  30 2.56   9 2.57  14 2.62   3 2.65  26 2.66
                            10 2.71
  14  0.299  0.883  0.327-  10 2.39  30 2.44  27 2.47   3 2.54   4 2.54  11 2.55  13 2.62  31 2.65
                            15 2.68
  15  0.562  0.885  0.325-  16 2.35  11 2.49   1 2.56   4 2.58  12 2.59  31 2.66  32 2.66  14 2.68
                            28 2.76
  16  0.794  0.882  0.328-  15 2.35  32 2.44   1 2.46  12 2.49  13 2.49  25 2.57  29 2.66   9 2.69
                             2 2.77
  17  0.563  0.224  0.397-  24 2.45  37 2.48  40 2.49  20 2.51  21 2.52  31 2.53   8 2.57  18 2.58
                            33 2.61  32 2.61   1 2.66   4 2.79
  18  0.816  0.212  0.396-   2 2.45  32 2.47  38 2.54  29 2.56   5 2.56   1 2.56  37 2.57  21 2.57
                            17 2.58  34 2.58  19 2.63  22 2.63
  19  0.075  0.218  0.398-   3 2.34  39 2.41  20 2.44  23 2.51  30 2.54  38 2.55  35 2.55   2 2.59
                            22 2.61   6 2.62  18 2.63  29 2.68
  20  0.316  0.221  0.396-   3 2.34  19 2.44  31 2.47  23 2.48  17 2.51  40 2.52  24 2.53  39 2.55
                             7 2.59   4 2.61  36 2.63  30 2.68
  21  0.693  0.468  0.399-  12 2.39  41 2.43   5 2.47  44 2.48  17 2.52  24 2.52  37 2.53  22 2.55
                            25 2.55  18 2.57  28 2.62   8 2.66
  22  0.944  0.473  0.396-  26 2.36   9 2.40   6 2.44  42 2.49   5 2.54  21 2.55  41 2.55  23 2.56
                            25 2.61  19 2.61  38 2.63  18 2.63
  23  0.196  0.467  0.396-  20 2.48  43 2.48  10 2.50   7 2.50  19 2.51  26 2.53  24 2.53  22 2.56
                            42 2.57   6 2.58  27 2.58  39 2.60
  24  0.445  0.467  0.394-   8 2.42  11 2.43  17 2.45  28 2.47  21 2.52  23 2.53  20 2.53  44 2.55
                             7 2.59  27 2.62  43 2.62  40 2.65
  25  0.809  0.726  0.400-  48 2.41  29 2.42  32 2.43  45 2.44  12 2.46  26 2.54  21 2.55  41 2.56
                            16 2.57  28 2.60  22 2.61   9 2.63
  26  0.058  0.707  0.396-  22 2.36   9 2.41  10 2.46  29 2.51  23 2.53  30 2.53  45 2.53  25 2.54
                            42 2.55  46 2.58  27 2.63  13 2.66
  27  0.317  0.726  0.395-  28 2.40  11 2.41  30 2.44  10 2.45  14 2.47  31 2.51  47 2.51  46 2.56
                            23 2.58  24 2.62  26 2.63  43 2.66
  28  0.553  0.718  0.402-  47 2.33  27 2.40  48 2.44  44 2.47  24 2.47  11 2.51  12 2.54  31 2.56
                            25 2.60  21 2.62  32 2.63  15 2.76
  29  0.938  0.957  0.398-  25 2.42  13 2.43  32 2.47  30 2.49  45 2.50  35 2.50  34 2.51  26 2.51
                            18 2.56  16 2.66  19 2.68   2 2.70
  30  0.183  0.956  0.395-  27 2.44  14 2.44   3 2.45  29 2.49  26 2.53  19 2.54  13 2.56  35 2.56
                            46 2.57  31 2.57  36 2.60  20 2.68
  31  0.436  0.977  0.397-  20 2.47  36 2.48  33 2.50  27 2.51  17 2.53  28 2.56  30 2.57  32 2.62
                            47 2.63   4 2.64  14 2.65  15 2.66
  32  0.694  0.969  0.397-  25 2.43  16 2.44  18 2.47  34 2.47  29 2.47  33 2.54  48 2.58   1 2.61
                            17 2.61  31 2.62  28 2.63  15 2.66
  33  0.562  0.042  0.466-  31 2.50  47 2.54  36 2.54  48 2.54  52 2.54  40 2.54  63 2.54  49 2.54
                            37 2.54  34 2.54  32 2.54  17 2.61
  34  0.813  0.042  0.466-  32 2.47  29 2.51  45 2.54  35 2.54  48 2.54  50 2.54  38 2.54  64 2.54
                            49 2.54  37 2.54  33 2.54  18 2.58
  35  0.063  0.042  0.466-  29 2.50  34 2.54  46 2.54  45 2.54  61 2.54  36 2.54  51 2.54  39 2.54
                            50 2.54  38 2.54  19 2.55  30 2.56
  36  0.313  0.042  0.466-  31 2.48  33 2.54  47 2.54  46 2.54  62 2.54  35 2.54  52 2.54  51 2.54
                            40 2.54  39 2.54  30 2.60  20 2.63
  37  0.688  0.292  0.466-  17 2.48  21 2.53  38 2.54  40 2.54  41 2.54  44 2.54  53 2.54  56 2.54
                            49 2.54  34 2.54  33 2.54  18 2.57
  38  0.937  0.292  0.466-  41 2.54  37 2.54  42 2.54  53 2.54  34 2.54  39 2.54  54 2.54  50 2.54
                            35 2.54  18 2.54  19 2.55  22 2.63
  39  0.187  0.292  0.466-  19 2.41  42 2.54  43 2.54  54 2.54  55 2.54  38 2.54  35 2.54  51 2.54
                            36 2.54  40 2.54  20 2.55  23 2.60
  40  0.438  0.292  0.466-  17 2.49  20 2.52  44 2.54  37 2.54  43 2.54  56 2.54  33 2.54  55 2.54
                            52 2.54  36 2.54  39 2.54  24 2.65
  41  0.813  0.542  0.466-  21 2.43  38 2.54  37 2.54  42 2.54  45 2.54  57 2.54  48 2.54  53 2.54
                            60 2.54  44 2.54  22 2.55  25 2.56
  42  0.063  0.542  0.466-  22 2.49  39 2.54  38 2.54  41 2.54  43 2.54  46 2.54  58 2.54  54 2.54
                            45 2.54  57 2.54  26 2.55  23 2.57
  43  0.313  0.542  0.466-  23 2.48  44 2.54  40 2.54  39 2.54  42 2.54  47 2.54  46 2.54  55 2.54
                            59 2.54  58 2.54  24 2.62  27 2.66
  44  0.562  0.542  0.466-  28 2.47  21 2.48  40 2.54  43 2.54  37 2.54  47 2.54  59 2.54  48 2.54
                            56 2.54  60 2.54  41 2.54  24 2.55
  45  0.937  0.792  0.466-  25 2.44  29 2.50  26 2.53  34 2.54  48 2.54  35 2.54  41 2.54  64 2.54
                            46 2.54  57 2.54  42 2.54  61 2.54
  46  0.187  0.792  0.466-  35 2.54  36 2.54  42 2.54  45 2.54  61 2.54  43 2.54  58 2.54  62 2.54
                            47 2.54  27 2.56  30 2.57  26 2.58
  47  0.438  0.792  0.466-  28 2.33  27 2.51  33 2.54  48 2.54  36 2.54  44 2.54  63 2.54  43 2.54
                            59 2.54  62 2.54  46 2.54  31 2.63
  48  0.688  0.792  0.466-  25 2.41  28 2.44  45 2.54  47 2.54  34 2.54  33 2.54  41 2.54  44 2.54
                            60 2.54  64 2.54  63 2.54  32 2.58
  49  0.688  0.125  0.534-  80 2.47  50 2.54  52 2.54  53 2.54  56 2.54  64 2.54  63 2.54  37 2.54
                            34 2.54  33 2.54  65 2.54  66 2.66
  50  0.937  0.125  0.534-  77 2.46  66 2.52  53 2.54  64 2.54  49 2.54  54 2.54  61 2.54  34 2.54
                            51 2.54  38 2.54  35 2.54  67 2.57
  51  0.187  0.125  0.534-  67 2.47  78 2.49  54 2.54  55 2.54  61 2.54  62 2.54  50 2.54  35 2.54
                            39 2.54  36 2.54  52 2.54  68 2.74
  52  0.438  0.125  0.534-  56 2.54  63 2.54  49 2.54  55 2.54  62 2.54  33 2.54  40 2.54  36 2.54
                            51 2.54  79 2.54  65 2.59  68 2.61
  53  0.813  0.375  0.534-  50 2.54  49 2.54  54 2.54  38 2.54  57 2.54  37 2.54  60 2.54  41 2.54
                            56 2.54  66 2.54  70 2.57  69 2.58
  54  0.063  0.375  0.534-  70 2.41  67 2.48  51 2.54  50 2.54  53 2.54  39 2.54  55 2.54  58 2.54
                            38 2.54  42 2.54  57 2.54  71 2.57
  55  0.313  0.375  0.534-  71 2.52  56 2.54  52 2.54  51 2.54  54 2.54  40 2.54  39 2.54  59 2.54
                            58 2.54  43 2.54  72 2.59  68 2.66
  56  0.562  0.375  0.534-  65 2.47  52 2.54  55 2.54  49 2.54  40 2.54  59 2.54  37 2.54  60 2.54
                            44 2.54  53 2.54  72 2.55  69 2.60
  57  0.937  0.625  0.534-  70 2.40  73 2.50  60 2.54  53 2.54  64 2.54  41 2.54  58 2.54  45 2.54
                            54 2.54  61 2.54  42 2.54  74 2.66
  58  0.187  0.625  0.534-  54 2.54  61 2.54  57 2.54  42 2.54  55 2.54  62 2.54  46 2.54  43 2.54
                            59 2.54  74 2.54  71 2.57  75 2.67
  59  0.438  0.625  0.534-  76 2.52  60 2.54  56 2.54  63 2.54  44 2.54  55 2.54  62 2.54  47 2.54
                            43 2.54  58 2.54  75 2.55  72 2.58
  60  0.688  0.625  0.534-  76 2.35  69 2.53  57 2.54  59 2.54  53 2.54  56 2.54  64 2.54  63 2.54
                            48 2.54  41 2.54  44 2.54  73 2.59
  61  0.063  0.875  0.534-  77 2.46  64 2.54  51 2.54  50 2.54  35 2.54  62 2.54  58 2.54  46 2.54
                            57 2.54  45 2.54  74 2.54  78 2.64
  62  0.313  0.875  0.534-  78 2.43  63 2.54  52 2.54  51 2.54  36 2.54  61 2.54  59 2.54  58 2.54
                            47 2.54  46 2.54  75 2.57  79 2.61
  63  0.562  0.875  0.534-  79 2.49  76 2.52  52 2.54  62 2.54  59 2.54  49 2.54  47 2.54  33 2.54
                            60 2.54  48 2.54  64 2.54  80 2.56
  64  0.813  0.875  0.534-  80 2.43  73 2.49  77 2.52  50 2.54  61 2.54  57 2.54  49 2.54  45 2.54
                            34 2.54  60 2.54  48 2.54  63 2.54
  65  0.568  0.220  0.603-  72 2.45  68 2.46  56 2.47  69 2.50  85 2.53  49 2.54  81 2.55  79 2.58
                            52 2.59  66 2.62  80 2.64  88 2.66
  66  0.826  0.215  0.605-  82 2.44  67 2.50  85 2.51  77 2.52  50 2.52  53 2.54  86 2.56  80 2.57
                            70 2.58  69 2.61  65 2.62  49 2.66
  67  0.072  0.213  0.602-  71 2.45  51 2.47  54 2.48  66 2.50  70 2.56  83 2.56  77 2.56  50 2.57
                            68 2.57  78 2.59  86 2.61  87 2.66
  68  0.325  0.210  0.608-  84 2.39  65 2.46  72 2.47  78 2.47  87 2.52  79 2.53  88 2.54  71 2.54
                            67 2.57  52 2.61  55 2.66  51 2.74
  69  0.690  0.467  0.604-  76 2.33  89 2.33  92 2.45  85 2.47  65 2.50  72 2.52  60 2.53  73 2.56
                            53 2.58  56 2.60  66 2.61  70 2.67
  70  0.953  0.469  0.600-  57 2.40  54 2.41  71 2.44  90 2.45  74 2.50  89 2.53  73 2.54  67 2.56
                            53 2.57  66 2.58  86 2.67  69 2.67
  71  0.193  0.455  0.604-  70 2.44  67 2.45  90 2.49  72 2.51  87 2.51  55 2.52  68 2.54  58 2.57
                            54 2.57  74 2.59  91 2.61  75 2.63
  72  0.441  0.457  0.604-  65 2.45  92 2.46  68 2.47  91 2.48  71 2.51  69 2.52  76 2.54  75 2.55
                            56 2.55  59 2.58  55 2.59  88 2.65
  73  0.822  0.716  0.603-  93 2.44  76 2.47  89 2.48  64 2.49  80 2.49  77 2.49  57 2.50  70 2.54
                            74 2.56  69 2.56  60 2.59  96 2.60
  74  0.075  0.716  0.605-  90 2.36  94 2.43  93 2.47  70 2.50  75 2.53  58 2.54  61 2.54  77 2.55
                            73 2.56  78 2.57  71 2.59  57 2.66
  75  0.324  0.714  0.605-  94 2.43  78 2.49  79 2.50  74 2.53  95 2.54  72 2.55  59 2.55  62 2.57
                            91 2.57  76 2.59  71 2.63  58 2.67
  76  0.579  0.698  0.600-  69 2.33  60 2.35  73 2.47  63 2.52  59 2.52  72 2.54  92 2.55  75 2.59
                            80 2.62  96 2.63  79 2.65  95 2.74
  77  0.943  0.963  0.601-  93 2.40  50 2.46  61 2.46  80 2.47  82 2.49  73 2.49  66 2.52  64 2.52
                            74 2.55  67 2.56  83 2.57  78 2.69
  78  0.208  0.964  0.602-  94 2.42  62 2.43  79 2.44  68 2.47  51 2.49  75 2.49  84 2.50  74 2.57
                            67 2.59  61 2.64  83 2.64  77 2.69
  79  0.449  0.960  0.603-  81 2.44  78 2.44  63 2.49  75 2.50  68 2.53  52 2.54  95 2.54  80 2.55
                            65 2.58  62 2.61  84 2.61  76 2.65
  80  0.700  0.962  0.601-  64 2.43  77 2.47  49 2.47  82 2.48  73 2.49  81 2.53  79 2.55  63 2.56
                            66 2.57  76 2.62  65 2.64  96 2.77
  81  0.571  0.039  0.669-  95 2.43  79 2.44  80 2.53  82 2.54  65 2.55  88 2.58  84 2.60  96 2.64
                            85 2.64
  82  0.821  0.044  0.668-  93 2.37  66 2.44  83 2.48  80 2.48  77 2.49  81 2.54  85 2.59  86 2.64
                            96 2.71
  83  0.065  0.046  0.671-  93 2.42  82 2.48  94 2.49  84 2.53  86 2.54  67 2.56  77 2.57  87 2.63
                            78 2.64
  84  0.315  0.050  0.673-  68 2.39  94 2.43  78 2.50  88 2.52  87 2.53  83 2.53  95 2.58  81 2.60
                            79 2.61
  85  0.697  0.302  0.671-  89 2.39  69 2.47  92 2.49  66 2.51  65 2.53  88 2.56  86 2.58  82 2.59
                            81 2.64
  86  0.951  0.304  0.674-  90 2.50  87 2.50  89 2.50  83 2.54  66 2.56  85 2.58  67 2.61  82 2.64
                            70 2.67
  87  0.198  0.304  0.675-  91 2.44  86 2.50  71 2.51  68 2.52  88 2.52  84 2.53  90 2.61  83 2.63
                            67 2.66
  88  0.446  0.293  0.678-  91 2.46  92 2.49  87 2.52  84 2.52  68 2.54  85 2.56  81 2.58  72 2.65
                            65 2.66
  89  0.813  0.538  0.666-  69 2.33  85 2.39  96 2.42  73 2.48  86 2.50  70 2.53  92 2.53  90 2.54
                            93 2.73
  90  0.063  0.556  0.667-  74 2.36  70 2.45  71 2.49  86 2.50  89 2.54  93 2.56  87 2.61  94 2.61
                            91 2.70
  91  0.328  0.538  0.674-  92 2.39  87 2.44  88 2.46  72 2.48  75 2.57  71 2.61  95 2.62  90 2.70
                            94 2.72
  92  0.564  0.540  0.671-  91 2.39  96 2.44  69 2.45  72 2.46  88 2.49  85 2.49  89 2.53  76 2.55
                            95 2.57
  93  0.940  0.812  0.667-  82 2.37  77 2.40  83 2.42  73 2.44  74 2.47  96 2.54  90 2.56  94 2.62
                            89 2.73
  94  0.199  0.809  0.668-  78 2.42  84 2.43  75 2.43  74 2.43  83 2.49  95 2.55  90 2.61  93 2.62
                            91 2.72
  95  0.450  0.801  0.674-  81 2.43  96 2.48  79 2.54  75 2.54  94 2.55  92 2.57  84 2.58  91 2.62
                            76 2.74
  96  0.693  0.775  0.675-  89 2.42  92 2.44  95 2.48  93 2.54  73 2.60  76 2.63  81 2.64  82 2.71
                            80 2.77
  97  0.116  0.546  0.084- 148 0.95 147 1.03
  98  0.661  0.844  0.136- 150 0.96 149 0.98
  99  0.859  0.292  0.056- 152 0.94 230 0.99
 100  0.064  0.193  0.807- 154 0.95 153 0.98
 101  0.314  0.285  0.782- 156 0.95 155 1.00
 102  0.181  0.407  0.219- 171 0.94 158 0.97
 103  0.853  0.385  0.766- 175 0.96 160 1.01
 104  0.904  0.039  0.124- 157 0.94 162 1.01
 105  0.926  0.885  0.938- 188 1.02 163 1.04
 106  0.325  0.292  0.896- 164 0.96 165 1.00
 107  0.105  0.188  0.039- 167 1.02 161 1.03
 108  0.133  0.731  0.917- 169 0.97 170 1.04
 109  0.190  0.900  0.215- 159 0.94 172 0.98
 110  0.119  0.488  0.873- 173 0.97 174 0.98
 111  0.410  0.952  0.121- 176 0.96 151 0.99
 112  0.558  0.272  0.204- 184 0.96 177 0.99
 113  0.763  0.277  0.153- 179 0.95 178 1.00
 114  0.473  0.847  0.978- 181 0.96 180 0.99
 115  0.230  0.895  0.774- 182 0.97 183 0.99
 116  0.632  0.771  0.038- 185 0.95 166 0.97
 117  0.561  0.395  0.847- 186 0.93 187 1.01
 118  0.727  0.507  0.988- 190 0.96 189 0.97
 119  0.510  0.142  0.959- 168 0.95 191 0.97
 120  0.157  0.570  0.782- 192 0.94 196 0.98
 121  0.815  0.601  0.234- 193 1.00 195 1.04
 122  0.722  0.688  0.916- 194 0.98 197 1.01
 123  0.224  0.932  0.030- 199 0.97 198 0.97
 124  0.728  0.275  0.907- 203 0.97 200 0.98
 125  0.117  0.194  0.133- 222 1.00 201 1.01
 126  0.415  0.663  0.768- 204 0.95 202 0.97
 127  0.363  0.425  0.078- 205 0.97 206 0.99
 128  0.314  0.147  0.194- 209 0.95 207 1.00
 129  0.551  0.183  0.055- 210 0.95 208 0.99
 130  0.355  0.648  0.231- 213 0.95 212 0.99
 131  0.719  0.924  0.790- 218 0.98 214 0.98
 132  0.590  0.584  0.186- 215 0.98 217 0.98
 133  0.920  0.949  0.229- 216 0.95 219 1.02
 134  0.039  0.696  0.012- 221 0.93 220 0.98
 135  0.631  0.217  0.778- 226 0.95 236 1.03
 136  0.891  0.927  0.041- 225 0.95 223 0.95
 137  0.963  0.461  0.162- 224 0.97 227 1.00
 138  0.528  0.750  0.857- 228 0.95 229 0.97
 139  0.634  0.487  0.102- 233 0.97 231 0.99
 140  0.399  0.492  0.986- 234 0.94 232 0.96
 141  0.111  0.321  0.960- 211 0.92 235 0.94
 142  0.990  0.160  0.895- 237 0.98 238 1.04
 143  0.968  0.846  0.802- 240 0.97 239 1.00
 144  0.317  0.970  0.856- 241 0.95 242 1.00
 145  0.892  0.589  0.850- 243 1.01 244 1.01
 146  0.171  0.821  0.115- 246 0.93 245 0.97
 147  0.071  0.553  0.054-  97 1.03
 148  0.131  0.647  0.094-  97 0.95
 149  0.746  0.897  0.140-  98 0.98
 150  0.655  0.775  0.161-  98 0.96
 151  0.500  0.909  0.123- 111 0.99
 152  0.806  0.209  0.065-  99 0.94
 153  0.154  0.199  0.795- 100 0.98
 154  0.004  0.249  0.789- 100 0.95
 155  0.340  0.377  0.799- 101 1.00
 156  0.297  0.338  0.755- 101 0.95
 157  0.992  0.064  0.131- 104 0.94
 158  0.123  0.395  0.244- 102 0.97
 159  0.124  0.915  0.236- 109 0.94
 160  0.880  0.453  0.791- 103 1.01
 161  0.153  0.085  0.037- 107 1.03
 162  0.853  0.130  0.135- 104 1.01
 163  0.999  0.836  0.919- 105 1.04
 164  0.323  0.193  0.883- 106 0.96
 165  0.399  0.347  0.881- 106 1.00
 166  0.714  0.825  0.043- 116 0.97
 167  0.118  0.225  0.007- 107 1.02
 168  0.441  0.194  0.944- 119 0.95
 169  0.217  0.768  0.905- 108 0.97
 170  0.131  0.622  0.903- 108 1.04
 171  0.231  0.495  0.224- 102 0.94
 172  0.243  0.992  0.213- 109 0.98
 173  0.155  0.388  0.880- 110 0.97
 174  0.023  0.471  0.871- 110 0.98
 175  0.880  0.433  0.739- 103 0.96
 176  0.437  0.026  0.099- 111 0.96
 177  0.567  0.248  0.236- 112 0.99
 178  0.827  0.356  0.163- 113 1.00
 179  0.692  0.263  0.173- 113 0.95
 180  0.434  0.746  0.971- 114 0.99
 181  0.537  0.828  0.000- 114 0.96
 182  0.304  0.833  0.765- 115 0.97
 183  0.206  0.972  0.751- 115 0.99
 184  0.521  0.373  0.207- 112 0.96
 185  0.626  0.725  0.066- 116 0.95
 186  0.583  0.498  0.845- 117 0.93
 187  0.573  0.333  0.819- 117 1.01
 188  0.941  0.996  0.929- 105 1.02
 189  0.698  0.590  0.006- 118 0.97
 190  0.771  0.435  0.007- 118 0.96
 191  0.486  0.035  0.960- 119 0.97
 192  0.136  0.530  0.810- 120 0.94
 193  0.879  0.536  0.217- 121 1.00
 194  0.720  0.605  0.938- 122 0.98
 195  0.780  0.533  0.259- 121 1.04
 196  0.107  0.661  0.775- 120 0.98
 197  0.784  0.772  0.925- 122 1.01
 198  0.306  0.922  0.014- 123 0.97
 199  0.166  0.852  0.020- 123 0.97
 200  0.681  0.329  0.883- 124 0.98
 201  0.203  0.164  0.147- 125 1.01
 202  0.336  0.601  0.765- 126 0.97
 203  0.655  0.216  0.919- 124 0.97
 204  0.446  0.663  0.738- 126 0.95
 205  0.410  0.495  0.097- 127 0.97
 206  0.274  0.470  0.074- 127 0.99
 207  0.269  0.240  0.206- 128 1.00
 208  0.506  0.176  0.026- 129 0.99
 209  0.407  0.160  0.195- 128 0.95
 210  0.524  0.282  0.064- 129 0.95
 211  0.199  0.332  0.953- 141 0.92
 212  0.398  0.645  0.260- 130 0.99
 213  0.310  0.742  0.229- 130 0.95
 214  0.697  0.031  0.785- 131 0.98
 215  0.672  0.584  0.203- 132 0.98
 216  0.910  0.851  0.242- 133 0.95
 217  0.530  0.650  0.202- 132 0.98
 218  0.701  0.887  0.760- 131 0.98
 219  0.912  0.000  0.259- 133 1.02
 220  0.970  0.761  0.025- 134 0.98
 221  0.006  0.688  0.983- 134 0.93
 222  0.136  0.240  0.104- 125 1.00
 223  0.915  0.964  0.070- 136 0.95
 224  0.045  0.418  0.173- 137 0.97
 225  0.918  0.001  0.021- 136 0.95
 226  0.582  0.218  0.752- 135 0.95
 227  0.978  0.484  0.130- 137 1.00
 228  0.593  0.746  0.879- 138 0.95
 229  0.560  0.823  0.835- 138 0.97
 230  0.943  0.238  0.050-  99 0.99
 231  0.600  0.515  0.132- 139 0.99
 232  0.366  0.478  0.016- 140 0.96
 233  0.678  0.391  0.108- 139 0.97
 234  0.488  0.460  0.988- 140 0.94
 235  0.078  0.269  0.935- 141 0.94
 236  0.717  0.277  0.774- 135 1.03
 237  0.020  0.156  0.864- 142 0.98
 238  0.892  0.197  0.894- 142 1.04
 239  0.055  0.900  0.801- 143 1.00
 240  0.902  0.917  0.793- 143 0.97
 241  0.379  0.890  0.861- 144 0.95
 242  0.282  0.960  0.825- 144 1.00
 243  0.916  0.692  0.838- 145 1.01
 244  0.824  0.608  0.874- 145 1.01
 245  0.223  0.896  0.099- 146 0.97
 246  0.183  0.827  0.145- 146 0.93
 
  LATTYP: Found a simple orthorhombic cell.
 ALAT       =     8.7818242399
 B/A-ratio  =     1.1547005384
 C/A-ratio  =     3.4310783653
  
  Lattice vectors:
  
 A1 = (   0.0000000000,  -8.7818242399,   0.0000000000)
 A2 = (  10.1403771778,   0.0000000000,   0.0000000000)
 A3 = (   0.0000000000,   0.0000000000,  30.1311271579)


Analysis of symmetry for initial positions (statically):
=====================================================================
 Subroutine PRICEL returns:
 Original cell was already a primitive cell.
 

 Routine SETGRP: Setting up the symmetry group for a 
 simple orthorhombic supercell.


 Subroutine GETGRP returns: Found  1 space group operations
 (whereof  1 operations were pure point group operations)
 out of a pool of  8 trial point group operations.


The static configuration has the point symmetry C_1 .


Analysis of symmetry for dynamics (positions and initial velocities):
=====================================================================
 Subroutine PRICEL returns:
 Original cell was already a primitive cell.
 

 Routine SETGRP: Setting up the symmetry group for a 
 simple orthorhombic supercell.


 Subroutine GETGRP returns: Found  1 space group operations
 (whereof  1 operations were pure point group operations)
 out of a pool of  8 trial point group operations.


The dynamic configuration has the point symmetry C_1 .


 Subroutine INISYM returns: Found  1 space group operations
 (whereof  1 operations are pure point group operations),
 and found     1 'primitive' translations


----------------------------------------------------------------------------------------

                                     Primitive cell                                     

  volume of cell :    2683.2073

  direct lattice vectors                    reciprocal lattice vectors
    10.140377178  0.000000000  0.000000000     0.098615661  0.000000000  0.000000000
     0.000000000  8.781824240  0.000000000     0.000000000  0.113871557  0.000000000
     0.000000000  0.000000000 30.131127158     0.000000000  0.000000000  0.033188271

  length of vectors
    10.140377178  8.781824240 30.131127158     0.098615661  0.113871557  0.033188271

  position of ions in fractional coordinates (direct lattice)
     0.691724763  0.135312433  0.325340965
     0.939662286  0.149046481  0.328476925
     0.190291738  0.141688101  0.334710346
     0.424862895  0.131554671  0.322044706
     0.805238292  0.394700452  0.329687965
     0.055479889  0.393398900  0.328391631
     0.306417596  0.390581718  0.325609790
     0.558835229  0.389717433  0.327161342
     0.941066573  0.627056503  0.330567786
     0.190866668  0.640724506  0.330636154
     0.438988602  0.641780096  0.331466193
     0.685117514  0.628656399  0.335334286
     0.040061823  0.895755800  0.327591794
     0.298616111  0.882552393  0.327432822
     0.562442590  0.885164607  0.324642684
     0.794410293  0.881606121  0.327873894
     0.562648696  0.224419203  0.397495916
     0.816364111  0.212047059  0.395790039
     0.075393349  0.217542500  0.398358811
     0.315578005  0.220831111  0.395896242
     0.693072839  0.468087255  0.399301358
     0.943881064  0.473138597  0.396208211
     0.196171204  0.467249160  0.396404022
     0.445324658  0.467463239  0.394077524
     0.808830861  0.725889044  0.399792545
     0.058160657  0.706903239  0.396244719
     0.317102603  0.725974447  0.395424968
     0.552548480  0.718331389  0.402042709
     0.938091339  0.957133708  0.398272522
     0.183087864  0.956150997  0.395292215
     0.435740202  0.976626241  0.397087701
     0.694402178  0.968510616  0.397110932
     0.562499787  0.041666628  0.465651349
     0.812500349  0.041666628  0.465651349
     0.062500042  0.041666628  0.465651349
     0.312500210  0.041666628  0.465651349
     0.687500068  0.291667190  0.465651349
     0.937499645  0.291667190  0.465651349
     0.187499929  0.291667190  0.465651349
     0.437500492  0.291667190  0.465651349
     0.812500349  0.541666500  0.465651349
     0.062500042  0.541666500  0.465651349
     0.312500210  0.541666500  0.465651349
     0.562499787  0.541666500  0.465651349
     0.937499645  0.791666949  0.465651349
     0.187499929  0.791666949  0.465651349
     0.437500492  0.791666949  0.465651349
     0.687500068  0.791666949  0.465651349
     0.687500068  0.125000224  0.534347750
     0.937499645  0.125000224  0.534347750
     0.187499929  0.125000224  0.534347750
     0.437500492  0.125000224  0.534347750
     0.812500349  0.374999534  0.534347750
     0.062500042  0.374999534  0.534347750
     0.312500210  0.374999534  0.534347750
     0.562499787  0.374999534  0.534347750
     0.937499645  0.624999983  0.534347750
     0.187499929  0.624999983  0.534347750
     0.437500492  0.624999983  0.534347750
     0.687500068  0.624999983  0.534347750
     0.062500042  0.875000432  0.534347750
     0.312500210  0.875000432  0.534347750
     0.562499787  0.875000432  0.534347750
     0.812500349  0.875000432  0.534347750
     0.567502559  0.220374486  0.603001006
     0.826254276  0.215246849  0.604514392
     0.072234000  0.213295091  0.601899156
     0.325330108  0.210184120  0.608384144
     0.689635097  0.467162618  0.604494479
     0.952761404  0.469401332  0.599751875
     0.193037198  0.455437263  0.603780931
     0.440809047  0.457377635  0.604497797
     0.822007885  0.715912757  0.602503182
     0.074590421  0.716099506  0.604806448
     0.324071772  0.714299197  0.605437025
     0.578615558  0.698423224  0.599874671
     0.943174976  0.962970764  0.600764117
     0.208091865  0.964205132  0.602101604
     0.448842279  0.960279979  0.603425816
     0.700025243  0.961986914  0.600883595
     0.571021166  0.039123648  0.669317809
     0.821045396  0.044362878  0.668242509
     0.065270255  0.046355858  0.671395394
     0.314695395  0.050370742  0.672679780
     0.696787691  0.302260661  0.670837831
     0.951322602  0.303549687  0.673864602
     0.197752013  0.304202171  0.674571512
     0.445843377  0.293459528  0.678222222
     0.812952009  0.538300457  0.666320908
     0.062539192  0.556287608  0.667475860
     0.327868475  0.538138759  0.673708617
     0.563698953  0.540452629  0.670655296
     0.940296385  0.811821076  0.667193759
     0.198816076  0.808946957  0.668338755
     0.449689387  0.801469012  0.673997355
     0.693096507  0.774852675  0.674916670
     0.116390148  0.545683889  0.084487712
     0.660982317  0.844466912  0.136412089
     0.858987772  0.291734374  0.055671001
     0.064228380  0.192526058  0.806727205
     0.314082005  0.284516056  0.781524032
     0.181452817  0.407255930  0.218894566
     0.852935729  0.384530584  0.766244153
     0.904175440  0.038582416  0.123504839
     0.925946820  0.885000632  0.938046554
     0.325294606  0.292499591  0.895993696
     0.105357028  0.188208048  0.039146561
     0.133272163  0.731188626  0.916756278
     0.189770061  0.899584162  0.214577104
     0.118737201  0.487853080  0.872824965
     0.410017293  0.951933194  0.120934075
     0.558007843  0.272057369  0.204242276
     0.763165893  0.276829726  0.152589711
     0.472676698  0.846981196  0.977557190
     0.230260666  0.895236546  0.774232569
     0.631607670  0.770867170  0.037800776
     0.561168475  0.395391653  0.846974621
     0.727233304  0.506502963  0.988011495
     0.509796619  0.141515016  0.958636557
     0.156924143  0.570199296  0.782244218
     0.815081121  0.601012939  0.233768553
     0.722234476  0.687507497  0.916255136
     0.224418674  0.932439522  0.030334843
     0.727791469  0.275041943  0.907287665
     0.116651479  0.193590757  0.133462647
     0.414558544  0.663493124  0.767551771
     0.362515115  0.424900328  0.078300423
     0.313772352  0.147319050  0.193787639
     0.551064315  0.183361675  0.054768943
     0.355289546  0.647637648  0.231006625
     0.718920004  0.923736319  0.789651840
     0.589707848  0.584379721  0.185622993
     0.920279378  0.948864356  0.229059469
     0.038838496  0.696461217  0.011971441
     0.631081062  0.217223660  0.778291495
     0.891144367  0.927272031  0.041483015
     0.963237346  0.460998750  0.162033102
     0.528471467  0.749986543  0.856712059
     0.633794965  0.487030927  0.102485711
     0.399369760  0.491662083  0.986129720
     0.110507724  0.321367170  0.959851248
     0.989736360  0.159941712  0.895031237
     0.968472851  0.845557802  0.801788790
     0.317141063  0.969722209  0.855975280
     0.891532913  0.589131581  0.849646277
     0.171008432  0.821261028  0.114971471
     0.070542149  0.552894236  0.053890118
     0.130965543  0.647157110  0.094040292
     0.745976197  0.896797725  0.140387712
     0.655402643  0.774898223  0.160989995
     0.499996195  0.908818007  0.123173620
     0.806057788  0.208975943  0.064504391
     0.154111625  0.199103279  0.795005108
     0.004400509  0.248656764  0.789064408
     0.339595849  0.377028725  0.798672412
     0.297385388  0.338217883  0.754585113
     0.991610058  0.064052409  0.131291803
     0.122508264  0.394894034  0.244102385
     0.124264608  0.914905580  0.236358898
     0.879808497  0.453410350  0.791384268
     0.153204360  0.084605314  0.036809111
     0.853134933  0.130134693  0.134531310
     0.999272495  0.836308015  0.918528532
     0.323484023  0.193291275  0.882711751
     0.399089692  0.346709285  0.880737048
     0.713875813  0.824534835  0.043118201
     0.117876286  0.224706160  0.007360893
     0.440969791  0.194147589  0.944027080
     0.216728625  0.768398435  0.905156978
     0.130542481  0.622349053  0.903404637
     0.231323743  0.495435787  0.223502425
     0.243202985  0.991976127  0.212768343
     0.155438991  0.388176751  0.879582097
     0.023080502  0.470918102  0.870946509
     0.879609293  0.433211813  0.739345059
     0.436628729  0.026486296  0.099293332
     0.567085415  0.247875605  0.236264311
     0.826506732  0.356462383  0.162844887
     0.691969330  0.263009135  0.172745944
     0.433987802  0.745942964  0.971490374
     0.537439575  0.828390526  0.000045562
     0.304353570  0.832631103  0.765022824
     0.205970642  0.971545293  0.751475372
     0.520563477  0.372512579  0.207007191
     0.625524070  0.724708196  0.066265692
     0.582821516  0.498393031  0.845491105
     0.573131541  0.333460329  0.818943808
     0.940974860  0.996124468  0.929258300
     0.698484867  0.590297626  0.006405004
     0.771134038  0.435021232  0.006919920
     0.485720591  0.034908009  0.960408811
     0.136010720  0.530397771  0.810341408
     0.879413048  0.536462570  0.217365582
     0.720013652  0.604506519  0.937741222
     0.779712614  0.532822096  0.259457934
     0.106515762  0.661457101  0.775025769
     0.783842638  0.772232490  0.925086534
     0.306489586  0.921774312  0.013779869
     0.165629934  0.851980158  0.020110101
     0.681230084  0.328828034  0.883305821
     0.203308019  0.163957961  0.147157787
     0.336016101  0.600932091  0.765168853
     0.654853353  0.216070141  0.918644691
     0.445733913  0.662855443  0.737715515
     0.409562675  0.495392515  0.097256236
     0.274359617  0.470299779  0.074026769
     0.268620186  0.239533375  0.206296630
     0.505879605  0.175609299  0.025860334
     0.407215622  0.160253720  0.194864599
     0.523824697  0.282498252  0.063910321
     0.198845661  0.332088177  0.952875073
     0.398448690  0.644540342  0.260491417
     0.309954940  0.742089550  0.229270215
     0.696915891  0.031372867  0.784640411
     0.671569694  0.583525684  0.202630654
     0.910246220  0.850990614  0.241681964
     0.529608505  0.649614459  0.202372781
     0.700717525  0.886594834  0.759556716
     0.912070610  0.000369549  0.259183467
     0.970366272  0.761497818  0.024945067
     0.005779361  0.688331927  0.983378413
     0.135552157  0.239791864  0.103756822
     0.915469892  0.963717762  0.069934656
     0.044854249  0.417760581  0.172640737
     0.918001356  0.001347966  0.020505373
     0.582139096  0.218248504  0.751594850
     0.977821929  0.483852772  0.129821894
     0.593225468  0.745744827  0.879376329
     0.560399273  0.822720861  0.835235930
     0.942719372  0.238309256  0.049777428
     0.600179845  0.515097988  0.132338229
     0.366183618  0.478229794  0.015615546
     0.678030006  0.391022401  0.108477190
     0.488083423  0.459635708  0.988343378
     0.078266024  0.269332423  0.934893668
     0.717103503  0.276836559  0.773748021
     0.019530437  0.156271631  0.864215927
     0.892221250  0.196619740  0.894135153
     0.055160571  0.900439337  0.800580737
     0.901809651  0.917466551  0.792525944
     0.378743308  0.889881167  0.861013259
     0.281912591  0.960044265  0.825232985
     0.916103005  0.692339067  0.837645398
     0.824480180  0.608493162  0.873903584
     0.222948314  0.895556525  0.098566177
     0.183465562  0.827300775  0.145370931

  ion indices of the primitive-cell ions
   primitive index   ion index
                 1           1
                 2           2
                 3           3
                 4           4
                 5           5
                 6           6
                 7           7
                 8           8
                 9           9
                10          10
                11          11
                12          12
                13          13
                14          14
                15          15
                16          16
                17          17
                18          18
                19          19
                20          20
                21          21
                22          22
                23          23
                24          24
                25          25
                26          26
                27          27
                28          28
                29          29
                30          30
                31          31
                32          32
                33          33
                34          34
                35          35
                36          36
                37          37
                38          38
                39          39
                40          40
                41          41
                42          42
                43          43
                44          44
                45          45
                46          46
                47          47
                48          48
                49          49
                50          50
                51          51
                52          52
                53          53
                54          54
                55          55
                56          56
                57          57
                58          58
                59          59
                60          60
                61          61
                62          62
                63          63
                64          64
                65          65
                66          66
                67          67
                68          68
                69          69
                70          70
                71          71
                72          72
                73          73
                74          74
                75          75
                76          76
                77          77
                78          78
                79          79
                80          80
                81          81
                82          82
                83          83
                84          84
                85          85
                86          86
                87          87
                88          88
                89          89
                90          90
                91          91
                92          92
                93          93
                94          94
                95          95
                96          96
                97          97
                98          98
                99          99
               100         100
               101         101
               102         102
               103         103
               104         104
               105         105
               106         106
               107         107
               108         108
               109         109
               110         110
               111         111
               112         112
               113         113
               114         114
               115         115
               116         116
               117         117
               118         118
               119         119
               120         120
               121         121
               122         122
               123         123
               124         124
               125         125
               126         126
               127         127
               128         128
               129         129
               130         130
               131         131
               132         132
               133         133
               134         134
               135         135
               136         136
               137         137
               138         138
               139         139
               140         140
               141         141
               142         142
               143         143
               144         144
               145         145
               146         146
               147         147
               148         148
               149         149
               150         150
               151         151
               152         152
               153         153
               154         154
               155         155
               156         156
               157         157
               158         158
               159         159
               160         160
               161         161
               162         162
               163         163
               164         164
               165         165
               166         166
               167         167
               168         168
               169         169
               170         170
               171         171
               172         172
               173         173
               174         174
               175         175
               176         176
               177         177
               178         178
               179         179
               180         180
               181         181
               182         182
               183         183
               184         184
               185         185
               186         186
               187         187
               188         188
               189         189
               190         190
               191         191
               192         192
               193         193
               194         194
               195         195
               196         196
               197         197
               198         198
               199         199
               200         200
               201         201
               202         202
               203         203
               204         204
               205         205
               206         206
               207         207
               208         208
               209         209
               210         210
               211         211
               212         212
               213         213
               214         214
               215         215
               216         216
               217         217
               218         218
               219         219
               220         220
               221         221
               222         222
               223         223
               224         224
               225         225
               226         226
               227         227
               228         228
               229         229
               230         230
               231         231
               232         232
               233         233
               234         234
               235         235
               236         236
               237         237
               238         238
               239         239
               240         240
               241         241
               242         242
               243         243
               244         244
               245         245
               246         246

----------------------------------------------------------------------------------------

 
 
 KPOINTS: KPOINTS created by Atomic Simulation Env

Automatic generation of k-mesh.
 Grid dimensions read from file:
 generate k-points for:    2    2    1

 Generating k-lattice:

  Cartesian coordinates                     Fractional coordinates (reciprocal lattice)
     0.049307831  0.000000000  0.000000000     0.500000000  0.000000000  0.000000000
     0.000000000  0.056935779  0.000000000     0.000000000  0.500000000  0.000000000
     0.000000000  0.000000000  0.033188271     0.000000000  0.000000000  1.000000000

  Length of vectors
     0.049307831  0.056935779  0.033188271

  Shift w.r.t. Gamma in fractional coordinates (k-lattice)
     0.500000000  0.500000000  0.000000000

 
 Subroutine IBZKPT returns following result:
 ===========================================
 
 Found      2 irreducible k-points:
 
 Following reciprocal coordinates:
            Coordinates               Weight
  0.250000  0.250000  0.000000      2.000000
 -0.250000  0.250000  0.000000      2.000000
 
 Following cartesian coordinates:
            Coordinates               Weight
  0.024654  0.028468  0.000000      2.000000
 -0.024654  0.028468  0.000000      2.000000
 


--------------------------------------------------------------------------------------------------------




 Dimension of arrays:
   k-points           NKPTS =      2   k-points in BZ     NKDIM =      2   number of bands    NBANDS=    874
   number of dos      NEDOS =    301   number of ions     NIONS =    246
   non local maximal  LDIM  =      6   non local SUM 2l+1 LMDIM =     18
   total plane-waves  NPLWV = ******
   max r-space proj   IRMAX =   8746   max aug-charges    IRDMAX=  24571
   dimension x,y,z NGX =    96 NGY =   84 NGZ =  280
   dimension x,y,z NGXF=   192 NGYF=  168 NGZF=  560
   support grid    NGXF=   192 NGYF=  168 NGZF=  560
   ions per type =              96  50 100
   NGX,Y,Z   is equivalent  to a cutoff of  15.74, 15.90, 15.45 a.u.
   NGXF,Y,Z  is equivalent  to a cutoff of  31.48, 31.80, 30.90 a.u.

 SYSTEM =  unknown system                          
 POSCAR =  Cu O  H                                 

 Startparameter for this run:
   NWRITE =      2    write-flag & timer
   PREC   = accura    normal or accurate (medium, high low for compatibility)
   ISTART =      0    job   : 0-new  1-cont  2-samecut
   ICHARG =      2    charge: 1-file 2-atom 10-const
   ISPIN  =      1    spin polarized calculation?
   LNONCOLLINEAR =      F non collinear calculations
   LSORBIT =      F    spin-orbit coupling
   INIWAV =      1    electr: 0-lowe 1-rand  2-diag
   LASPH  =      T    aspherical Exc in radial PAW
 Electronic Relaxation 1
   ENCUT  =  800.0 eV  58.80 Ry    7.67 a.u.  23.39 20.25 69.49*2*pi/ulx,y,z
   ENINI  =  800.0     initial cutoff
   ENAUG  = 1000.0 eV  augmentation charge cutoff
   NELM   =    160;   NELMIN=  2; NELMDL= -5     # of ELM steps 
   EDIFF  = 0.1E-06   stopping-criterion for ELM
   LREAL  =      T    real-space projection
   NLSPLINE    = F    spline interpolate recip. space projectors
   LCOMPAT=      F    compatible to vasp.4.4
   GGA_COMPAT  = T    GGA compatible to vasp.4.4-vasp.4.6
   LMAXPAW     = -100 max onsite density
   LMAXMIX     =    2 max onsite mixed and CHGCAR
   VOSKOWN=      0    Vosko Wilk Nusair interpolation
   ROPT   =   -0.00025  -0.00025  -0.00025
 Ionic relaxation
   EDIFFG = 0.1E-05   stopping-criterion for IOM
   NSW    =      0    number of steps for IOM
   NBLOCK =      1;   KBLOCK =      1    inner block; outer block 
   IBRION =     -1    ionic relax: 0-MD 1-quasi-New 2-CG
   NFREE  =      0    steps in history (QN), initial steepest desc. (CG)
   ISIF   =      2    stress and relaxation
   IWAVPR =     10    prediction:  0-non 1-charg 2-wave 3-comb
   ISYM   =      2    0-nonsym 1-usesym 2-fastsym
   LCORR  =      T    Harris-Foulkes like correction to forces

   POTIM  = 0.5000    time-step for ionic-motion
   TEIN   =    0.0    initial temperature
   TEBEG  =    0.0;   TEEND  =   0.0 temperature during run
   SMASS  =  -3.00    Nose mass-parameter (am)
   estimated Nose-frequenzy (Omega)   =  0.10E-29 period in steps = 0.13E+47 mass=  -0.235E-26a.u.
   SCALEE = 1.0000    scale energy and forces
   NPACO  =    256;   APACO  = 10.0  distance and # of slots for P.C.
   PSTRESS=    0.0 pullay stress

  Mass of Ions in am
   POMASS =  63.55 16.00  1.00
  Ionic Valenz
   ZVAL   =  11.00  6.00  1.00
  Atomic Wigner-Seitz radii
   RWIGS  =  -1.00 -1.00 -1.00
  virtual crystal weights 
   VCA    =   1.00  1.00  1.00
   NELECT =    1456.0000    total number of electrons
   NUPDOWN=      -1.0000    fix difference up-down

 DOS related values:
   EMIN   =  10.00;   EMAX   =-10.00  energy-range for DOS
   EFERMI =   0.00;   METHOD = LEGACY      
   ISMEAR =     0;   SIGMA  =   0.10  broadening in eV -4-tet -1-fermi 0-gaus

 Electronic relaxation 2 (details)
   IALGO  =     68    algorithm
   LDIAG  =      T    sub-space diagonalisation (order eigenvalues)
   LSUBROT=      F    optimize rotation matrix (better conditioning)
   TURBO    =      0    0=normal 1=particle mesh
   IRESTART =      0    0=no restart 2=restart with 2 vectors
   NREBOOT  =      0    no. of reboots
   NMIN     =      0    reboot dimension
   EREF     =   0.00    reference energy to select bands
   IMIX   =      4    mixing-type and parameters
     AMIX     =   0.40;   BMIX     =  1.00
     AMIX_MAG =   1.60;   BMIX_MAG =  1.00
     AMIN     =   0.10
     WC   =   100.;   INIMIX=   1;  MIXPRE=   1;  MAXMIX= -45

 Intra band minimization:
   WEIMIN = 0.0000     energy-eigenvalue tresh-hold
   EBREAK =  0.29E-10  absolut break condition
   DEPER  =   0.30     relativ break condition  

   TIME   =   0.40     timestep for ELM

  volume/ion in A,a.u.               =      10.91        73.61
  Fermi-wavevector in a.u.,A,eV,Ry     =   1.335295  2.523342 24.259360  1.783013
  Thomas-Fermi vector in A             =   2.464010
 
 Write flags
   LWAVE        =      T    write WAVECAR
   LDOWNSAMPLE  =      F    k-point downsampling of WAVECAR
   LCHARG       =      T    write CHGCAR
   LVTOT        =      F    write LOCPOT, total local potential
   LVHAR        =      T    write LOCPOT, Hartree potential only
   WRT_POTENTIAL=  hartree ionic  ! write potential to hdf5 file
   LELF         =      F    write electronic localiz. function (ELF)
   LORBIT       =      0    0 simple, 1 ext, 2 COOP (PROOUT), +10 PAW based schemes


 Dipole corrections
   LMONO      =      F    monopole corrections only (constant potential shift)
   LDIPOL     =      F    correct potential (dipole corrections)
   IDIPOL     =      0    1-x, 2-y, 3-z, 4-all directions 
   EPSILON    =  1.0000000 bulk dielectric constant
   LVACPOTAV  =      F  vacuum potentials using an averaging scheme for the charge density
   VACPOTFLAT =  0.1000000 required flatness to determine vacuum potential
 Exchange correlation treatment:
   METAGGA = R2SCAN    functional components
   XC_C    = 1    coefficients multiplying the functional components
   LIBXC   =     F    Libxc                    
   VOSKOWN =     0    Vosko Wilk Nusair interpolation
   LHFCALC =     F    Hartree Fock is set to
   LHFONE  =     F    Hartree Fock one center treatment
   AEXX    =    0.0000 exact exchange contribution

 Parameters of functionals:
   R2SCAN:
     No parameter
 
 Accuracy and mixing parameters for tau-dependent meta-GGA functionals:
   LMAXTAU = 6
   LMIXTAU = T
 
 Van der Waals corrections
   IVDW    =     0    specifies the selected vdW correction

 Linear response parameters
   LEPSILON=     F    determine dielectric tensor
   LRPA    =     F    only Hartree local field effects (RPA)
   LNABLA  =     F    use nabla operator in PAW spheres
   LVEL    =     F    velocity operator in full k-point grid
   CSHIFT  =0.1000    complex shift for real part using Kramers Kronig
   OMEGAMAX=  -1.0    maximum frequency
   DEG_THRESHOLD= 0.2000000E-02 threshold for treating states as degnerate
   RTIME   =   -0.100 relaxation time in fs
  (WPLASMAI=    0.000 imaginary part of plasma frequency in eV, 0.658/RTIME)
   DFIELD  = 0.0000000 0.0000000 0.0000000 field for delta impulse in time
 
  Optional k-point grid parameters
   LKPOINTS_OPT  =     F    use optional k-point grid
   KPOINTS_OPT_MODE=     1    mode for optional k-point grid
 
 Orbital magnetization related:
   ORBITALMAG=     F  switch on orbital magnetization
   LCHIMAG   =     F  perturbation theory with respect to B field
   DQ        =  0.001000  dq finite difference perturbation B field
   LLRAUG    =     F  two centre corrections for induced B field
   LBONE     =     F  B-component reconstruction in AE one-centre
   LVGVCALC  =     T  calculate vGv susceptibility
   LVGVAPPL  =     F  apply vGv susceptibility instead of pGv for G=0

 Random number generation:
   RANDOM_GENERATOR = DEFAULT
   PCG_SEED         = not used


--------------------------------------------------------------------------------------------------------


 Static calculation
 charge density and potential will be updated during run
 non-spin polarized calculation
 RMM-DIIS sequential band-by-band and
  variant of blocked Davidson during initial phase
 perform sub-space diagonalisation
    before iterative eigenvector-optimisation
 modified Broyden-mixing scheme, WC =      100.0
 initial mixing is a Kerker type mixing with AMIX =  0.4000 and BMIX =      1.0000
 Hartree-type preconditioning will be used
 using additional bands           146
 real space projection scheme for non local part
 use partial core corrections
 calculate Harris-corrections to forces 
   (improved forces if not selfconsistent)
 use gradient corrections 
 use of overlap-Matrix (Vanderbilt PP)
 Gauss-broadening in eV      SIGMA  =   0.10


--------------------------------------------------------------------------------------------------------


  energy-cutoff  :      800.00
  volume of cell :     2683.21
      direct lattice vectors                 reciprocal lattice vectors
    10.140377178  0.000000000  0.000000000     0.098615661  0.000000000  0.000000000
     0.000000000  8.781824240  0.000000000     0.000000000  0.113871557  0.000000000
     0.000000000  0.000000000 30.131127158     0.000000000  0.000000000  0.033188271

  length of vectors
    10.140377178  8.781824240 30.131127158     0.098615661  0.113871557  0.033188271


 
 k-points in units of 2pi/SCALE and weight: KPOINTS created by Atomic Simulation Env
   0.02465392  0.02846789  0.00000000       0.500
  -0.02465392  0.02846789  0.00000000       0.500
 
 k-points in reciprocal lattice and weights: KPOINTS created by Atomic Simulation Env
   0.25000000  0.25000000  0.00000000       0.500
  -0.25000000  0.25000000  0.00000000       0.500
 
 position of ions in fractional coordinates (direct lattice) 
   0.69172476  0.13531243  0.32534097
   0.93966229  0.14904648  0.32847693
   0.19029174  0.14168810  0.33471035
   0.42486289  0.13155467  0.32204471
   0.80523829  0.39470045  0.32968797
   0.05547989  0.39339890  0.32839163
   0.30641760  0.39058172  0.32560979
   0.55883523  0.38971743  0.32716134
   0.94106657  0.62705650  0.33056779
   0.19086667  0.64072451  0.33063615
   0.43898860  0.64178010  0.33146619
   0.68511751  0.62865640  0.33533429
   0.04006182  0.89575580  0.32759179
   0.29861611  0.88255239  0.32743282
   0.56244259  0.88516461  0.32464268
   0.79441029  0.88160612  0.32787389
   0.56264870  0.22441920  0.39749592
   0.81636411  0.21204706  0.39579004
   0.07539335  0.21754250  0.39835881
   0.31557801  0.22083111  0.39589624
   0.69307284  0.46808725  0.39930136
   0.94388106  0.47313860  0.39620821
   0.19617120  0.46724916  0.39640402
   0.44532466  0.46746324  0.39407752
   0.80883086  0.72588904  0.39979254
   0.05816066  0.70690324  0.39624472
   0.31710260  0.72597445  0.39542497
   0.55254848  0.71833139  0.40204271
   0.93809134  0.95713371  0.39827252
   0.18308786  0.95615100  0.39529222
   0.43574020  0.97662624  0.39708770
   0.69440218  0.96851062  0.39711093
   0.56249979  0.04166663  0.46565135
   0.81250035  0.04166663  0.46565135
   0.06250004  0.04166663  0.46565135
   0.31250021  0.04166663  0.46565135
   0.68750007  0.29166719  0.46565135
   0.93749964  0.29166719  0.46565135
   0.18749993  0.29166719  0.46565135
   0.43750049  0.29166719  0.46565135
   0.81250035  0.54166650  0.46565135
   0.06250004  0.54166650  0.46565135
   0.31250021  0.54166650  0.46565135
   0.56249979  0.54166650  0.46565135
   0.93749964  0.79166695  0.46565135
   0.18749993  0.79166695  0.46565135
   0.43750049  0.79166695  0.46565135
   0.68750007  0.79166695  0.46565135
   0.68750007  0.12500022  0.53434775
   0.93749964  0.12500022  0.53434775
   0.18749993  0.12500022  0.53434775
   0.43750049  0.12500022  0.53434775
   0.81250035  0.37499953  0.53434775
   0.06250004  0.37499953  0.53434775
   0.31250021  0.37499953  0.53434775
   0.56249979  0.37499953  0.53434775
   0.93749964  0.62499998  0.53434775
   0.18749993  0.62499998  0.53434775
   0.43750049  0.62499998  0.53434775
   0.68750007  0.62499998  0.53434775
   0.06250004  0.87500043  0.53434775
   0.31250021  0.87500043  0.53434775
   0.56249979  0.87500043  0.53434775
   0.81250035  0.87500043  0.53434775
   0.56750256  0.22037449  0.60300101
   0.82625428  0.21524685  0.60451439
   0.07223400  0.21329509  0.60189916
   0.32533011  0.21018412  0.60838414
   0.68963510  0.46716262  0.60449448
   0.95276140  0.46940133  0.59975187
   0.19303720  0.45543726  0.60378093
   0.44080905  0.45737763  0.60449780
   0.82200789  0.71591276  0.60250318
   0.07459042  0.71609951  0.60480645
   0.32407177  0.71429920  0.60543703
   0.57861556  0.69842322  0.59987467
   0.94317498  0.96297076  0.60076412
   0.20809187  0.96420513  0.60210160
   0.44884228  0.96027998  0.60342582
   0.70002524  0.96198691  0.60088359
   0.57102117  0.03912365  0.66931781
   0.82104540  0.04436288  0.66824251
   0.06527025  0.04635586  0.67139539
   0.31469539  0.05037074  0.67267978
   0.69678769  0.30226066  0.67083783
   0.95132260  0.30354969  0.67386460
   0.19775201  0.30420217  0.67457151
   0.44584338  0.29345953  0.67822222
   0.81295201  0.53830046  0.66632091
   0.06253919  0.55628761  0.66747586
   0.32786847  0.53813876  0.67370862
   0.56369895  0.54045263  0.67065530
   0.94029638  0.81182108  0.66719376
   0.19881608  0.80894696  0.66833875
   0.44968939  0.80146901  0.67399735
   0.69309651  0.77485267  0.67491667
   0.11639015  0.54568389  0.08448771
   0.66098232  0.84446691  0.13641209
   0.85898777  0.29173437  0.05567100
   0.06422838  0.19252606  0.80672721
   0.31408201  0.28451606  0.78152403
   0.18145282  0.40725593  0.21889457
   0.85293573  0.38453058  0.76624415
   0.90417544  0.03858242  0.12350484
   0.92594682  0.88500063  0.93804655
   0.32529461  0.29249959  0.89599370
   0.10535703  0.18820805  0.03914656
   0.13327216  0.73118863  0.91675628
   0.18977006  0.89958416  0.21457710
   0.11873720  0.48785308  0.87282496
   0.41001729  0.95193319  0.12093408
   0.55800784  0.27205737  0.20424228
   0.76316589  0.27682973  0.15258971
   0.47267670  0.84698120  0.97755719
   0.23026067  0.89523655  0.77423257
   0.63160767  0.77086717  0.03780078
   0.56116848  0.39539165  0.84697462
   0.72723330  0.50650296  0.98801150
   0.50979662  0.14151502  0.95863656
   0.15692414  0.57019930  0.78224422
   0.81508112  0.60101294  0.23376855
   0.72223448  0.68750750  0.91625514
   0.22441867  0.93243952  0.03033484
   0.72779147  0.27504194  0.90728766
   0.11665148  0.19359076  0.13346265
   0.41455854  0.66349312  0.76755177
   0.36251512  0.42490033  0.07830042
   0.31377235  0.14731905  0.19378764
   0.55106431  0.18336167  0.05476894
   0.35528955  0.64763765  0.23100663
   0.71892000  0.92373632  0.78965184
   0.58970785  0.58437972  0.18562299
   0.92027938  0.94886436  0.22905947
   0.03883850  0.69646122  0.01197144
   0.63108106  0.21722366  0.77829149
   0.89114437  0.92727203  0.04148302
   0.96323735  0.46099875  0.16203310
   0.52847147  0.74998654  0.85671206
   0.63379497  0.48703093  0.10248571
   0.39936976  0.49166208  0.98612972
   0.11050772  0.32136717  0.95985125
   0.98973636  0.15994171  0.89503124
   0.96847285  0.84555780  0.80178879
   0.31714106  0.96972221  0.85597528
   0.89153291  0.58913158  0.84964628
   0.17100843  0.82126103  0.11497147
   0.07054215  0.55289424  0.05389012
   0.13096554  0.64715711  0.09404029
   0.74597620  0.89679773  0.14038771
   0.65540264  0.77489822  0.16098999
   0.49999619  0.90881801  0.12317362
   0.80605779  0.20897594  0.06450439
   0.15411162  0.19910328  0.79500511
   0.00440051  0.24865676  0.78906441
   0.33959585  0.37702873  0.79867241
   0.29738539  0.33821788  0.75458511
   0.99161006  0.06405241  0.13129180
   0.12250826  0.39489403  0.24410238
   0.12426461  0.91490558  0.23635890
   0.87980850  0.45341035  0.79138427
   0.15320436  0.08460531  0.03680911
   0.85313493  0.13013469  0.13453131
   0.99927249  0.83630802  0.91852853
   0.32348402  0.19329127  0.88271175
   0.39908969  0.34670928  0.88073705
   0.71387581  0.82453483  0.04311820
   0.11787629  0.22470616  0.00736089
   0.44096979  0.19414759  0.94402708
   0.21672862  0.76839843  0.90515698
   0.13054248  0.62234905  0.90340464
   0.23132374  0.49543579  0.22350243
   0.24320299  0.99197613  0.21276834
   0.15543899  0.38817675  0.87958210
   0.02308050  0.47091810  0.87094651
   0.87960929  0.43321181  0.73934506
   0.43662873  0.02648630  0.09929333
   0.56708541  0.24787561  0.23626431
   0.82650673  0.35646238  0.16284489
   0.69196933  0.26300914  0.17274594
   0.43398780  0.74594296  0.97149037
   0.53743957  0.82839053  0.00004556
   0.30435357  0.83263110  0.76502282
   0.20597064  0.97154529  0.75147537
   0.52056348  0.37251258  0.20700719
   0.62552407  0.72470820  0.06626569
   0.58282152  0.49839303  0.84549111
   0.57313154  0.33346033  0.81894381
   0.94097486  0.99612447  0.92925830
   0.69848487  0.59029763  0.00640500
   0.77113404  0.43502123  0.00691992
   0.48572059  0.03490801  0.96040881
   0.13601072  0.53039777  0.81034141
   0.87941305  0.53646257  0.21736558
   0.72001365  0.60450652  0.93774122
   0.77971261  0.53282210  0.25945793
   0.10651576  0.66145710  0.77502577
   0.78384264  0.77223249  0.92508653
   0.30648959  0.92177431  0.01377987
   0.16562993  0.85198016  0.02011010
   0.68123008  0.32882803  0.88330582
   0.20330802  0.16395796  0.14715779
   0.33601610  0.60093209  0.76516885
   0.65485335  0.21607014  0.91864469
   0.44573391  0.66285544  0.73771552
   0.40956267  0.49539252  0.09725624
   0.27435962  0.47029978  0.07402677
   0.26862019  0.23953338  0.20629663
   0.50587960  0.17560930  0.02586033
   0.40721562  0.16025372  0.19486460
   0.52382470  0.28249825  0.06391032
   0.19884566  0.33208818  0.95287507
   0.39844869  0.64454034  0.26049142
   0.30995494  0.74208955  0.22927021
   0.69691589  0.03137287  0.78464041
   0.67156969  0.58352568  0.20263065
   0.91024622  0.85099061  0.24168196
   0.52960851  0.64961446  0.20237278
   0.70071753  0.88659483  0.75955672
   0.91207061  0.00036955  0.25918347
   0.97036627  0.76149782  0.02494507
   0.00577936  0.68833193  0.98337841
   0.13555216  0.23979186  0.10375682
   0.91546989  0.96371776  0.06993466
   0.04485425  0.41776058  0.17264074
   0.91800136  0.00134797  0.02050537
   0.58213910  0.21824850  0.75159485
   0.97782193  0.48385277  0.12982189
   0.59322547  0.74574483  0.87937633
   0.56039927  0.82272086  0.83523593
   0.94271937  0.23830926  0.04977743
   0.60017984  0.51509799  0.13233823
   0.36618362  0.47822979  0.01561555
   0.67803001  0.39102240  0.10847719
   0.48808342  0.45963571  0.98834338
   0.07826602  0.26933242  0.93489367
   0.71710350  0.27683656  0.77374802
   0.01953044  0.15627163  0.86421593
   0.89222125  0.19661974  0.89413515
   0.05516057  0.90043934  0.80058074
   0.90180965  0.91746655  0.79252594
   0.37874331  0.88988117  0.86101326
   0.28191259  0.96004427  0.82523298
   0.91610300  0.69233907  0.83764540
   0.82448018  0.60849316  0.87390358
   0.22294831  0.89555653  0.09856618
   0.18346556  0.82730078  0.14537093
 
 position of ions in cartesian coordinates  (Angst):
   7.01435000  1.18829000  9.80289000
   9.52853000  1.30890000  9.89738000
   1.92963000  1.24428000 10.08520000
   4.30827000  1.15529000  9.70357000
   8.16542000  3.46619000  9.93387000
   0.56258700  3.45476000  9.89481000
   3.10719000  3.43002000  9.81099000
   5.66680000  3.42243000  9.85774000
   9.54277000  5.50670000  9.96038000
   1.93546000  5.62673000  9.96244000
   4.45151000  5.63600000  9.98745000
   6.94735000  5.52075000 10.10400000
   0.40624200  7.86637000  9.87071000
   3.02808000  7.75042000  9.86592000
   5.70338000  7.77336000  9.78185000
   8.05562000  7.74211000  9.87921000
   5.70547000  1.97081000 11.97700000
   8.27824000  1.86216000 11.92560000
   0.76451700  1.91042000 12.00300000
   3.20008000  1.93930000 11.92880000
   7.02802000  4.11066000 12.03140000
   9.57131000  4.15502000 11.93820000
   1.98925000  4.10330000 11.94410000
   4.51576000  4.10518000 11.87400000
   8.20185000  6.37463000 12.04620000
   0.58977100  6.20790000 11.93930000
[...]
      0.63377      0.36591     14.03060         0.046041      0.004848     -0.019637
      3.16887      0.36591     14.03060        -0.117303      0.036933     -0.103864
      6.97151      2.56137     14.03060         0.089292     -0.044710      0.025334
      9.50660      2.56137     14.03060        -0.004171      0.035512     -0.157341
      1.90132      2.56137     14.03060         0.170223      0.110138      0.160017
      4.43642      2.56137     14.03060        -0.058352      0.072048     -0.036882
      8.23906      4.75682     14.03060         0.163886      0.037203      0.172151
      0.63377      4.75682     14.03060         0.088838     -0.029299      0.002503
      3.16887      4.75682     14.03060         0.114603      0.065575     -0.138713
      5.70396      4.75682     14.03060        -0.047446     -0.128395      0.184631
      9.50660      6.95228     14.03060         0.153194     -0.032683      0.244416
      1.90132      6.95228     14.03060        -0.025568     -0.051513     -0.145779
      4.43642      6.95228     14.03060        -0.327435      0.235909      0.463039
      6.97151      6.95228     14.03060        -0.053714      0.166915      0.414713
      6.97151      1.09773     16.10050         0.053065      0.163059      0.032649
      9.50660      1.09773     16.10050         0.022484      0.134010     -0.099500
      1.90132      1.09773     16.10050         0.153275      0.086293      0.019161
      4.43642      1.09773     16.10050        -0.026848      0.072245      0.210542
      8.23906      3.29318     16.10050        -0.026293      0.037613      0.126624
      0.63377      3.29318     16.10050         0.152344     -0.004643     -0.283093
      3.16887      3.29318     16.10050         0.077030     -0.064771      0.203229
      5.70396      3.29318     16.10050         0.024368      0.128481      0.023015
      9.50660      5.48864     16.10050         0.127538      0.246166     -0.241014
      1.90132      5.48864     16.10050         0.077279      0.041323      0.198418
      4.43642      5.48864     16.10050        -0.066620     -0.003740      0.085093
      6.97151      5.48864     16.10050         0.311390     -0.098248     -0.414306
      0.63377      7.68410     16.10050         0.147499     -0.009882      0.002018
      3.16887      7.68410     16.10050         0.149867     -0.075657     -0.073746
      5.70396      7.68410     16.10050         0.045116      0.042745     -0.031651
      8.23906      7.68410     16.10050         0.105417      0.013238     -0.312893
      5.75469      1.93529     18.16910         0.318950     -0.538351      0.254869
      8.37853      1.89026     18.21470        -0.304591      0.244440     -0.162890
      0.73248      1.87312     18.13590        -0.004284     -0.215526      0.440240
      3.29897      1.84580     18.33130        -0.246430      0.201711     -0.602519
      6.99316      4.10254     18.21410         0.386313     -0.796077     -0.839897
      9.66136      4.12220     18.07120        -0.654743     -0.410224      0.526991
      1.95747      3.99957     18.19260         0.369818      0.360593      0.024843
      4.46997      4.01661     18.21420        -0.108479      0.177094     -0.210976
      8.33547      6.28702     18.15410        -0.030009     -0.222745     -0.027033
      0.75637      6.28866     18.22350        -0.011017      0.201210     -0.722368
      3.28621      6.27285     18.24250         0.108528     -0.435887     -0.224524
      5.86738      6.13343     18.07490        -0.850520      1.042286      0.791368
      9.56415      8.45664     18.10170         0.476880      0.191730      0.050585
      2.11013      8.46748     18.14200        -0.817406      0.151242      0.032968
      4.55143      8.43301     18.18190         0.153698     -0.084782     -0.027241
      7.09852      8.44800     18.10530        -0.536677     -0.030516      0.477514
      5.79037      0.34358     20.16730         0.223735      0.325075      0.090597
      8.32571      0.38959     20.13490        -0.416368      0.323485      0.336049
      0.66187      0.40709     20.22990         0.306493      0.440663     -0.274848
      3.19113      0.44235     20.26860         0.360304     -0.067691      0.152542
      7.06569      2.65440     20.21310        -0.183631     -0.701388      0.001552
      9.64677      2.66572     20.30430        -0.100793     -0.283293     -0.560214
      2.00528      2.67145     20.32560        -0.300707     -0.287868     -0.244439
      4.52102      2.57711     20.43560         0.138990     -0.200306     -0.492711
      8.24364      4.72726     20.07700         0.736054      0.403463      0.466577
      0.63417      4.88522     20.11180         0.299780     -0.209373      0.650482
      3.32471      4.72584     20.29960        -0.640192      0.519193     -0.332439
      5.71612      4.74616     20.20760         0.209239      0.139503      0.187227
      9.53496      7.12927     20.10330         0.151174     -0.867157      0.574414
      2.01607      7.10403     20.13780        -0.158019     -0.538103      0.540338
      4.56002      7.03836     20.30830        -0.173755     -0.284245     -0.511731
      7.02826      6.80462     20.33600         0.014556      0.776936     -0.585968
      1.18024      4.79210      2.54571        -1.516860     -2.170773     -2.198763
      6.70261      7.41596      4.11025         0.812120      0.486515      0.157304
      8.71046      2.56196      1.67743         0.821675      0.520718     -0.513415
      0.65130      1.69073     24.30760         0.767943     -1.209338      0.523677
      3.18491      2.49857     23.54820         0.812179      1.294289      0.836304
      1.84000      3.57645      6.59554        -1.451008     -2.102843      0.075748
      8.64909      3.37688     23.08780         0.347829      0.165525      1.837265
      9.16868      0.33882      3.72134        -2.562063      0.015413      0.124647
      9.38945      7.77192     28.26440         1.112970      1.277239     -1.749061
      3.29861      2.56868     26.99730         0.751631      0.888222     -0.450351
      1.06836      1.65281      1.17953         0.720679     -0.874446     -1.288368
      1.35143      6.42117     27.62290         0.717530     -1.169456     -0.777907
      1.92434      7.89999      6.46545         1.259806     -1.267531     -0.160660
      1.20404      4.28424     26.29920        -0.362718     -1.291461     -0.743907
      4.15773      8.35971      3.64388         1.344080     -0.104356     -0.099876
      5.65841      2.38916      6.15405        -0.377834     -0.505560      2.239069
      7.73879      2.43107      4.59770         1.188169      0.170951     -0.604099
      4.79312      7.43804     29.45490        -1.814745     -0.459899     -1.196715
      2.33493      7.86181     23.32850        -0.919832      1.107938     -0.771171
      6.40474      6.76962      1.13898         1.262543      0.056211      0.232763
      5.69046      3.47226     25.52030        -0.874694     -2.745541     -0.378600
      7.37442      4.44802     29.76990        -0.510169      0.349995     -0.487870
      5.16953      1.24276     28.88480         1.000826      0.073589      0.530207
      1.59127      5.00739     23.56990         0.513209      0.507467     -2.717078
      8.26523      5.27799      7.04371        -0.305158     -1.900173      1.707839
      7.32373      6.03757     27.60780         0.449912      0.682211     -0.857730
      2.27569      8.18852      0.91402         0.431983     -0.152830     -0.060187
      7.38008      2.41537     27.33760         0.146929      0.134026     -0.829406
      1.18289      1.70008      4.02138         1.706670      0.346298     -0.252965
      4.20378      5.82668     23.12720        -0.189903      0.144172      0.406373
      3.67604      3.73140      2.35928        -0.147125      0.236705     -0.055206
      3.18177      1.29373      5.83904        -1.567958      0.506134      0.809248
      5.58800      1.61025      1.65025        -0.375927     -0.678046     -0.728517
      3.60277      5.68744      6.96049         1.245419     -1.421050      0.768731
      7.29012      8.11209     23.79310        -0.362057      0.289243     -1.321798
      5.97986      5.13192      5.59303        -0.556261      0.384101      0.842603
      9.33198      8.33276      6.90182        -0.069329      1.675348      2.279995
      0.39384      6.11620      0.36071         0.285149      0.173161      1.900388
      6.39940      1.90762     23.45080         1.973975      0.537394      0.948488
      9.03654      8.14314      1.24993        -0.910432     -1.357974     -0.906485
      9.76759      4.04841      4.88224        -0.351374      0.717203     -0.463441
      5.35890      6.58625     25.81370        -1.247729      0.088904     -1.230458
      6.42692      4.27702      3.08801        -0.704297      0.336218      0.650435
      4.04976      4.31769     29.71320        -0.846395      0.526727     -0.859115
      1.12059      2.82219     28.92140        -1.107587      0.532852      1.840709
     10.03630      1.40458     26.96830        -2.063849      0.755822     -0.249033
      9.82068      7.42554     24.15880         1.930219      0.479008     -0.333594
      3.21593      8.51593     25.79150        -1.196267      1.219680     -0.668544
      9.04048      5.17365     25.60080        -0.801168      0.796776     -0.252013
      1.73409      7.21217      3.46422        -0.991330     -0.421814     -2.294904
      0.71532      4.85542      1.62377         1.081876      0.317214      1.917837
      1.32804      5.68322      2.83354         0.283490      1.680066      0.283388
      7.56448      7.87552      4.23004        -0.390068     -0.079129     -0.342968
      6.64603      6.80502      4.85081        -0.010875     -0.283857     -0.161660
      5.07015      7.98108      3.71136        -0.546975     -0.260555      0.503677
      8.17373      1.83519      1.94359        -1.215379     -0.747770      0.350040
      1.56275      1.74849     23.95440        -0.424889      0.585207      0.173848
      0.04462      2.18366     23.77540        -0.388944      0.650428     -0.758093
      3.44363      3.31100     24.06490        -0.177893     -1.384423      0.205997
      3.01560      2.97017     22.73650        -0.438969     -0.071006     -1.070149
     10.05530      0.56250      3.95597         1.705295      0.399135      0.322559
      1.24228      3.46789      7.35508         0.333550      0.179739     -0.230348
      1.26009      8.03454      7.12176        -1.009500      0.345145      0.334872
      8.92159      3.98177     23.84530        -0.538547     -0.356170     -0.586309
      1.55355      0.74299      1.10910        -0.583495      1.070302      0.306410
      8.65111      1.14282      4.05358         0.384950     -0.828481     -0.391279
     10.13300      7.34431     27.67630        -0.945800      0.372487      1.461400
      3.28025      1.69745     26.59710         0.073855     -0.785728     -0.351598
      4.04692      3.04474     26.53760        -0.717803     -0.594187      0.567138
      7.23897      7.24092      1.29920         0.247602      0.568066     -0.641039
      1.19531      1.97333      0.22179        -0.455326      0.236057      1.083946
      4.47160      1.70497     28.44460        -0.953074      0.512329     -0.488002
      2.19771      6.74794     27.27340        -0.474497      0.231029      0.197218
      1.32375      5.46536     27.22060        -0.035172      1.477068      0.637024
      2.34571      4.35083      6.73438         1.195709      1.874971      0.365174
      2.46617      8.71136      6.41095         0.108280      0.472811     -0.355258
      1.57621      3.40890     26.50280         0.516022      0.280424      0.190627
      0.23405      4.13552     26.24260         0.273391      0.632563     -0.061590
      8.91957      3.80439     22.27730         0.178532      0.466177     -0.491835
      4.42758      0.23260      2.99182        -0.436603      0.805635     -0.528190
      5.75046      2.17680      7.11891         0.160526     -0.203280     -1.014449
      8.38109      3.13039      4.90670        -0.271861     -0.667658     -0.383700
      7.01683      2.30970      5.20503        -0.463892      0.059629      0.611787
      4.40080      6.55074     29.27210         0.416527      0.714173      0.170690
      5.44984      7.27478      0.00137         0.535973     -0.284311      0.796208
      3.08626      7.31202     23.05100         0.294428     -0.108465     -0.097120
      2.08862      8.53194     22.64280         0.670667     -0.866308      0.557826
      5.27871      3.27134      6.23736         0.065717      0.651891     -0.729076
      6.34305      6.36426      1.99666        -0.705900     -0.785331      0.839292
      5.91003      4.37680     25.47560         0.292328      1.989144     -0.726177
      5.81177      2.92839     24.67570         0.066707      1.219891      1.027848
      9.54184      8.74779     27.99960        -0.414373     -1.778685      0.369486
      7.08290      5.18389      0.19299        -0.000504      0.097658      0.399113
      7.81959      3.82028      0.20850         0.303248     -0.453032      0.399471
      4.92539      0.30656     28.93820        -0.096184     -0.432005     -0.136450
      1.37920      4.65786     24.41650        -0.647018     -0.182199      1.992380
      8.91758      4.71112      6.54947        -0.459686      0.548345     -0.072738
      7.30121      5.30867     28.25520         0.385138      0.182388      0.503461
      7.90658      4.67915      7.81776         1.055389      1.410154     -1.826531
      1.08011      5.80880     23.35240         0.102259     -0.381492      0.798566
      7.94846      6.78161     27.87390        -0.410436     -0.922067      0.219512
      3.10792      8.09486      0.41520        -0.077920     -0.113230      0.012585
      1.67955      7.48194      0.60594        -0.071295     -0.309453     -0.146087
      6.90793      2.88771     26.61500         0.359214     -0.103661      0.271699
      2.06162      1.43985      4.43403        -1.093641      0.427854     -0.897452
      3.40733      5.27728     23.05540        -0.622701      0.072751      0.558697
      6.64046      1.89749     27.67980        -0.002886     -0.427326      0.749476
      4.51991      5.82108     22.22820         0.740363     -0.055102     -0.812561
      4.15312      4.35045      2.93044        -0.033032     -0.166599     -0.379302
      2.78211      4.13009      2.23051        -0.078269     -0.138159      0.569004
      2.72391      2.10354      6.21595         0.847060     -0.675792     -0.469153
      5.12981      1.54217      0.77920         0.674709     -0.175684      0.301484
      4.12932      1.40732      5.87149         0.634299      0.384619     -0.211811
      5.31178      2.48085      1.92569        -0.262501      0.726799      0.470577
      2.01637      2.91634     28.71120         2.490403      0.633733     -0.307481
      4.04042      5.66024      7.84890        -0.535724      0.122511     -0.770658
      3.14306      6.51690      6.90817        -1.020999      1.565750     -0.221374
      7.06699      0.27551     23.64210        -0.204228     -0.003797      0.593526
      6.80997      5.12442      6.10549         0.306121      0.073629     -0.051397
      9.23024      7.47325      7.28215        -0.308196     -1.889413     -0.417727
      5.37043      5.70480      6.09772        -0.139073     -0.389935     -0.334201
      7.10554      7.78592     22.88630         0.165411     -0.252410      0.687281
      9.24874      0.00325      7.80949         0.052558      0.105591     -1.744821
      9.83988      6.68734      0.75162         0.170440      0.249372      0.348440
      0.05860      6.04481     29.63030        -0.250260     -0.376472     -2.288002
      1.37455      2.10581      3.12631        -0.152258     -0.686634      1.036549
      9.28321      8.46320      2.10721         0.203623      0.701482      1.558514
      0.45484      3.66870      5.20186         0.217586     -0.197358     -0.374005
      9.30888      0.01184      0.61785         0.253828      0.515629     -0.618160
      5.90311      1.91662     22.64640        -0.515565      0.190243     -0.969508
      9.91548      4.24911      3.91168         0.218092     -0.165605      1.012014
      6.01553      6.54900     26.49660         1.077237     -0.053133      1.262366
      5.68266      7.22499     25.16660         0.268075     -0.183677      0.022503
      9.55953      2.09279      1.49985         0.304404      0.532643     -0.000711
      6.08605      4.52350      3.98750         0.600871     -0.137701     -1.102254
      3.71324      4.19973      0.47051        -0.007332     -0.087906      0.635582
      6.87548      3.43389      3.26854         0.200688      0.136983     -0.051537
      4.94935      4.03644     29.77990         1.173827     -0.329457      0.013365
      0.79365      2.36523     28.16940        -1.166735     -1.104053     -1.277910
      7.27170      2.43113     23.31390        -1.360152     -0.530725     -0.189409
      0.19805      1.37235     26.03980        -0.163744     -0.075296      0.200292
      9.04746      1.72668     26.94130         1.710076     -0.440638      0.179064
      0.55935      7.90750     24.12240        -1.492281     -0.837381      0.277385
      9.14469      8.05703     23.87970        -0.345823     -0.114530      0.237379
      3.84060      7.81478     25.94330         0.762666     -0.774151     -0.058697
      2.85870      8.43094     24.86520         0.673723     -0.209570      1.266668
      9.28963      6.08000     25.23920        -0.290676     -1.083454      0.533492
      8.36054      5.34368     26.33170         0.569739      0.134040     -0.670684
      2.26078      7.86462      2.96991         0.113048     -0.389240      0.544742
      1.86041      7.26521      4.38019         0.546566      0.670648      1.928368
 -----------------------------------------------------------------------------------
    total drift:                               -0.003291     -0.017003      0.002416


--------------------------------------------------------------------------------------------------------



  FREE ENERGIE OF THE ION-ELECTRON SYSTEM (eV)
  ---------------------------------------------------
  free  energy   TOTEN  =     -1808.58598951 eV

  energy  without entropy=    -1808.33066704  energy(sigma->0) =    -1808.45832827
 


--------------------------------------------------------------------------------------------------------


    POTLOK:  cpu time     11.9419: real time     11.9627


--------------------------------------------------------------------------------------------------------


 writing wavefunctions
     LOOP+:  cpu time   1768.4407: real time   1771.7586
    4ORBIT:  cpu time      0.0000: real time      0.0000

 total amount of memory used by VASP MPI-rank0  3314105. kBytes
=======================================================================

   base      :      30000. kBytes
   nonlr-proj:     189026. kBytes
   fftplans  :     312780. kBytes
   grid      :     814785. kBytes
   one-center:       3825. kBytes
   wavefun   :    1963689. kBytes
 
  
  
 General timing and accounting informations for this job:
 ========================================================
  
                  Total CPU time used (sec):     1836.124
                            User time (sec):     1800.040
                          System time (sec):       36.084
                         Elapsed time (sec):     1840.216
  
                   Maximum memory used (kb):     5018276.
                   Average memory used (kb):          N/A
  
                          Minor page faults:      8303633
                          Major page faults:         3960
                 Voluntary context switches:        41774
