246
Lattice="10.140377178 0.0 0.0 0.0 8.78182424 0.0 0.0 0.0 30.131127158" Properties=species:S:1:pos:R:3:initial_charges:R:1:forces:R:3 NELECT0=1456.0 NELECT=1460.1928382460574 U_vs_SHE=-1.853119140233455 stress="0.003355210611746308 0.0007159073382479356 -0.0005692630813353085 0.0007159073382479356 0.0012694979901681513 0.0005039456883329401 -0.0005692630813353085 0.0005039456883329401 -0.008340422539262659" free_energy=-1800.3551077 energy=-1811.873261822115 pbc="T T T"
Cu       7.01435000       1.18829000       9.80289000      -0.08666900      -0.46390900       0.23496600       0.31686500
Cu       9.52853000       1.30890000       9.89738000      -0.09957600      -0.14673000      -0.22813400       0.17514500
Cu       1.92963000       1.24428000      10.08520000      -0.09852800      -0.49699200      -0.26335100      -1.19777500
Cu       4.30827000       1.15529000       9.70357000      -0.08815100       0.71241600       0.17370500       0.54135900
Cu       8.16542000       3.46619000       9.93387000      -0.12844200       0.19925100      -0.64588400      -0.06917800
Cu       0.56259000       3.45476000       9.89481000      -0.10486500       0.53105700      -0.45602000       0.08776300
Cu       3.10719000       3.43002000       9.81099000      -0.05677400       0.28901800      -0.08195500       0.21955600
Cu       5.66680000       3.42243000       9.85774000      -0.10837600       0.04949800      -0.45635400      -0.10068300
Cu       9.54277000       5.50670000       9.96038000      -0.03640400      -0.53229400       0.93556000      -0.41231800
Cu       1.93546000       5.62673000       9.96244000      -0.06443000      -0.43385300      -0.20165800      -0.23941800
Cu       4.45151000       5.63600000       9.98745000      -0.12930400       0.06127300      -0.06327000      -0.28116900
Cu       6.94735000       5.52075000      10.10400000      -0.09463800      -0.24007000       0.62059100      -0.47346700
Cu       0.40624000       7.86637000       9.87071000      -0.08147500       0.60464600      -0.36274300       0.20475600
Cu       3.02808000       7.75042000       9.86592000      -0.04878900       0.47161800       0.45753000      -0.03601600
Cu       5.70338000       7.77336000       9.78185000      -0.07861800      -0.62383900       0.14199300       0.55479400
Cu       8.05562000       7.74211000       9.87921000      -0.06391400       0.86178700       0.00112100       0.18766300
Cu       5.70547000       1.97081000      11.97700000       0.00132000       0.25571500      -0.50824800      -0.48357200
Cu       8.27824000       1.86216000      11.92560000       0.00083200       0.01085100       0.27244200       0.16652200
Cu       0.76452000       1.91042000      12.00300000      -0.00154000      -1.06553100      -0.00222100       0.08156300
Cu       3.20008000       1.93930000      11.92880000      -0.00314800       0.45739600      -0.02248400       0.29928700
Cu       7.02802000       4.11066000      12.03140000      -0.00548800      -0.12840800      -0.26310000      -0.05469200
Cu       9.57131000       4.15502000      11.93820000       0.00702900      -0.51074300      -0.84810400       0.47942800
Cu       1.98925000       4.10330000      11.94410000       0.01584600      -0.17273600       0.08484200       0.03225400
Cu       4.51576000       4.10518000      11.87400000       0.00046600      -0.46277300      -0.01992700       0.51409700
Cu       8.20185000       6.37463000      12.04620000       0.00156100       0.11410100      -0.68183200      -0.50448900
Cu       0.58977000       6.20790000      11.93930000       0.00700900       0.50946800       0.65590900       0.21752000
Cu       3.21554000       6.37538000      11.91460000      -0.00875500      -0.47841800      -0.38511900       0.55036600
Cu       5.60305000       6.30826000      12.11400000      -0.00427400       0.88042500       0.21318800      -0.95258600
Cu       9.51260000       8.40538000      12.00040000       0.00178800       0.06833300       0.63759200      -0.28799800
Cu       1.85658000       8.39675000      11.91060000      -0.00251000       0.00071600       0.27283600       0.32762000
Cu       4.41857000       8.57656000      11.96470000       0.01119400       0.22146600      -0.22479200      -0.49378900
Cu       7.04150000       8.50529000      11.96540000       0.00521700      -0.86442800       0.15885800      -0.18217100
Cu       5.70396000       0.36591000      14.03060000       0.01643500       0.03460800       0.03700400      -0.05849000
Cu       8.23906000       0.36591000      14.03060000      -0.03821900       0.02760100       0.06610800       0.08662900
Cu       0.63377000       0.36591000      14.03060000      -0.01478400       0.04593900       0.01348000      -0.01424700
Cu       3.16887000       0.36591000      14.03060000      -0.00770900      -0.12251800       0.03913000      -0.08641900
Cu       6.97151000       2.56137000      14.03060000      -0.01296200       0.09821200      -0.02807600       0.05303700
Cu       9.50660000       2.56137000      14.03060000       0.00644400      -0.00534700       0.04594300      -0.13105000
Cu       1.90132000       2.56137000      14.03060000      -0.04811300       0.16383500       0.11470400       0.17768300
Cu       4.43642000       2.56137000      14.03060000      -0.01221700      -0.05946900       0.09093700      -0.01877500
Cu       8.23906000       4.75682000      14.03060000      -0.01848900       0.17486100       0.05108000       0.19726500
Cu       0.63377000       4.75682000      14.03060000      -0.01608800       0.08232300      -0.02563300       0.01898100
Cu       3.16887000       4.75682000      14.03060000      -0.01133600       0.11845500       0.07635900      -0.11850100
Cu       5.70396000       4.75682000      14.03060000      -0.01179900      -0.05305900      -0.11743400       0.21269500
Cu       9.50660000       6.95228000      14.03060000      -0.01429300       0.14474600      -0.02665200       0.26410400
Cu       1.90132000       6.95228000      14.03060000       0.00754700      -0.02255400      -0.03921000      -0.12905300
Cu       4.43642000       6.95228000      14.03060000      -0.04567300      -0.32518500       0.24212600       0.47866400
Cu       6.97151000       6.95228000      14.03060000      -0.01872500      -0.04928800       0.17006900       0.43603200
Cu       6.97151000       1.09773000      16.10050000      -0.01322800       0.05765000       0.15800800       0.01641000
Cu       9.50660000       1.09773000      16.10050000      -0.01561800       0.02652400       0.12119400      -0.12125300
Cu       1.90132000       1.09773000      16.10050000      -0.03558400       0.14889200       0.07900800      -0.00766900
Cu       4.43642000       1.09773000      16.10050000       0.01882600      -0.02912800       0.06134600       0.18680500
Cu       8.23906000       3.29318000      16.10050000       0.00825400      -0.02453700       0.03386300       0.12324200
Cu       0.63377000       3.29318000      16.10050000      -0.04125200       0.16015400      -0.01711500      -0.30186900
Cu       3.16887000       3.29318000      16.10050000       0.01029600       0.07138000      -0.07299000       0.18528400
Cu       5.70396000       3.29318000      16.10050000      -0.04093800       0.02505600       0.12082400       0.01041400
Cu       9.50660000       5.48864000      16.10050000      -0.04012700       0.11621400       0.24487300      -0.25502100
Cu       1.90132000       5.48864000      16.10050000       0.01317500       0.08178100       0.03370600       0.18137800
Cu       4.43642000       5.48864000      16.10050000      -0.01535900      -0.06119000      -0.00861300       0.06799400
Cu       6.97151000       5.48864000      16.10050000      -0.01562300       0.31885600      -0.10623800      -0.43833900
Cu       0.63377000       7.68410000      16.10050000       0.00508600       0.15430400      -0.01246300      -0.01644500
Cu       3.16887000       7.68410000      16.10050000      -0.01921900       0.14645500      -0.08325300      -0.09279400
Cu       5.70396000       7.68410000      16.10050000      -0.01895500       0.04655400       0.02898700      -0.05908800
Cu       8.23906000       7.68410000      16.10050000      -0.04433600       0.10895200      -0.00189000      -0.34287900
Cu       5.75469000       1.93529000      18.16910000       0.00570600       0.30864600      -0.53318700       0.23939400
Cu       8.37853000       1.89026000      18.21470000       0.00186400      -0.30163000       0.25293400      -0.18092600
Cu       0.73248000       1.87312000      18.13590000       0.00456300      -0.00012500      -0.20506500       0.44788600
Cu       3.29897000       1.84580000      18.33130000       0.00895800      -0.25323500       0.21078300      -0.65183400
Cu       6.99316000       4.10254000      18.21410000      -0.00486600       0.38672000      -0.77994300      -0.85509000
Cu       9.66136000       4.12220000      18.07120000      -0.00009200      -0.65573900      -0.39073500       0.51453800
Cu       1.95747000       3.99957000      18.19260000       0.00557900       0.36577800       0.37831600       0.01100600
Cu       4.46997000       4.01661000      18.21420000      -0.00646700      -0.10668500       0.18855600      -0.24324700
Cu       8.33547000       6.28702000      18.15410000       0.00327600      -0.03807600      -0.21796000      -0.03260600
Cu       0.75637000       6.28866000      18.22350000      -0.00516800      -0.01307100       0.20799200      -0.76112500
Cu       3.28621000       6.27285000      18.24250000       0.00887100       0.10890800      -0.43398700      -0.25026900
Cu       5.86738000       6.13343000      18.07490000       0.00133500      -0.85613500       1.05804200       0.81200300
Cu       9.56415000       8.45664000      18.10170000      -0.00645600       0.47930200       0.21054400       0.04374600
Cu       2.11013000       8.46748000      18.14200000      -0.01233500      -0.82037500       0.17382800       0.01188000
Cu       4.55143000       8.43301000      18.18190000       0.00184000       0.15400300      -0.06993300      -0.04737000
Cu       7.09852000       8.44800000      18.10530000       0.01161100      -0.54742000      -0.02159600       0.47106500
Cu       5.79037000       0.34358000      20.16730000      -0.11456100       0.23061700       0.34572400       0.16177400
Cu       8.32571000       0.38959000      20.13490000      -0.09799400      -0.43208300       0.32778300       0.37405000
Cu       0.66187000       0.40709000      20.22990000      -0.09197700       0.33521000       0.44350700      -0.22384200
Cu       3.19113000       0.44235000      20.26860000      -0.08011800       0.34698000      -0.06065400       0.19683400
Cu       7.06569000       2.65440000      20.21310000      -0.08254100      -0.20685800      -0.71752600       0.00001000
Cu       9.64677000       2.66572000      20.30430000      -0.06999100      -0.09598000      -0.26482000      -0.58717100
Cu       2.00528000       2.67145000      20.32560000      -0.08689700      -0.28549600      -0.28586700      -0.21562400
Cu       4.52102000       2.57711000      20.43560000      -0.08607700       0.16075000      -0.20296500      -0.46476600
Cu       8.24364000       4.72726000      20.07700000      -0.11388900       0.75506100       0.40575500       0.53426600
Cu       0.63417000       4.88522000      20.11180000      -0.06517000       0.29000500      -0.20866400       0.65943800
Cu       3.32471000       4.72584000      20.29960000      -0.07090000      -0.64037700       0.50122900      -0.34876300
Cu       5.71612000       4.74616000      20.20760000      -0.07792000       0.19560800       0.15066300       0.23985600
Cu       9.53496000       7.12927000      20.10330000      -0.07557300       0.14728100      -0.86222900       0.58033600
Cu       2.01607000       7.10403000      20.13780000      -0.07163500      -0.15524300      -0.53551900       0.51196600
Cu       4.56002000       7.03836000      20.30830000      -0.08471000      -0.16210700      -0.27951600      -0.52690200
Cu       7.02826000       6.80462000      20.33600000      -0.08850900       0.00825300       0.80021900      -0.54105000
O        1.18024000       4.79210000       2.54571000      -1.33734200      -1.46502700      -2.18970600      -2.49718100
O        6.70261000       7.41596000       4.11025000      -1.32923500       0.87303600       0.47770100      -0.10477100
O        8.71046000       2.56196000       1.67743000      -1.34726200       0.81075800       0.50826300      -0.75559600
O        0.65130000       1.69073000      24.30760000      -1.38701500       0.70273700      -1.15834000       1.08515600
O        3.18491000       2.49857000      23.54820000      -1.29521500       0.70961400       1.27724200       1.48351200
O        1.84000000       3.57645000       6.59554000      -1.34518400      -1.49527500      -2.09008400      -0.48437200
O        8.64909000       3.37688000      23.08780000      -1.33357400       0.36208000       0.15324200       2.73402500
O        9.16868000       0.33882000       3.72134000      -1.38737600      -2.55973900      -0.06505200      -0.14729900
O        9.38945000       7.77192000      28.26440000      -1.29791400       1.12667600       1.29472600      -1.70230100
O        3.29861000       2.56868000      26.99730000      -1.33521500       0.80242800       0.83679900      -0.20226900
O        1.06836000       1.65281000       1.17953000      -1.34672900       0.92067200      -0.94597500      -1.57146000
O        1.35143000       6.42117000      27.62290000      -1.26927300       0.80834500      -1.12979000      -0.59870700
O        1.92434000       7.89999000       6.46545000      -1.36511300       1.27564400      -1.10053300      -0.69565100
O        1.20404000       4.28424000      26.29920000      -1.31989000      -0.33402200      -1.29919600      -0.30378700
O        4.15773000       8.35971000       3.64388000      -1.30575700       1.43211400      -0.13005200      -0.42178400
O        5.65841000       2.38916000       6.15405000      -1.27517200      -0.33518100      -0.44835300       1.72635500
O        7.73879000       2.43107000       4.59770000      -1.37049000       1.22706700       0.21887200      -0.93314100
O        4.79312000       7.43804000      29.45490000      -1.37637200      -1.81577500      -0.49669900      -1.21485800
O        2.33493000       7.86181000      23.32850000      -1.34746200      -0.89328200       1.18854600       0.04680600
O        6.40474000       6.76962000       1.13898000      -1.27309900       1.25998500       0.05187900       0.09692700
O        5.69046000       3.47226000      25.52030000      -1.35210600      -0.79842200      -2.56949500       0.19850100
O        7.37442000       4.44802000      29.76990000      -1.32595100      -0.54830200       0.39762300      -0.49859400
O        5.16953000       1.24276000      28.88480000      -1.31437400       0.96969400       0.01454400       0.53731800
O        1.59127000       5.00739000      23.56990000      -1.35046700       0.40682800       0.41599800      -2.03919800
O        8.26523000       5.27799000       7.04371000      -1.27123500      -0.32852300      -1.91382300       0.87599000
O        7.32373000       6.03757000      27.60780000      -1.34616700       0.37888600       0.67821100      -0.59488700
O        2.27569000       8.18852000       0.91402000      -1.31448600       0.52278500      -0.26980600      -0.24630300
O        7.38008000       2.41537000      27.33760000      -1.35826400       0.12306200       0.07442500      -0.59474300
O        1.18289000       1.70008000       4.02138000      -1.29294800       1.69620900       0.39206400      -0.56291300
O        4.20378000       5.82668000      23.12720000      -1.32715700      -0.32569700       0.08762700       1.05119800
O        3.67604000       3.73140000       2.35928000      -1.31583100      -0.14913000       0.32363300      -0.25848600
O        3.18177000       1.29373000       5.83904000      -1.32979800      -1.57057000       0.57321600       0.31929400
O        5.58800000       1.61025000       1.65025000      -1.30118000      -0.44586200      -0.64722300      -0.95122600
O        3.60277000       5.68744000       6.96049000      -1.36540500       1.21855300      -1.31152300       0.11316000
O        7.29012000       8.11209000      23.79310000      -1.32301600      -0.38289500       0.30667100      -0.82883800
O        5.97986000       5.13192000       5.59303000      -1.33705900      -0.57467700       0.48208900       0.29282800
O        9.33198000       8.33276000       6.90182000      -1.22819700      -0.09860300       1.58433500       1.80545900
O        0.39384000       6.11620000       0.36071000      -1.33111100       0.25946800       0.14645000       1.78812400
O        6.39940000       1.90762000      23.45080000      -1.35210400       1.96499300       0.68968800       1.70225400
O        9.03654000       8.14314000       1.24993000      -1.36287300      -0.94735000      -1.48714000      -1.15126700
O        9.76759000       4.04841000       4.88224000      -1.31526000      -0.37155500       0.75267100      -0.98893900
O        5.35890000       6.58625000      25.81370000      -1.33110600      -1.16679600       0.09343200      -0.83260900
O        6.42692000       4.27702000       3.08801000      -1.34118000      -0.75478100       0.34843600       0.39010200
O        4.04976000       4.31769000      29.71320000      -1.32152200      -0.81086200       0.54478200      -0.90313000
O        1.12059000       2.82219000      28.92140000      -1.36976700      -1.06433400       0.58786600       1.80103000
O       10.03630000       1.40458000      26.96830000      -1.30006600      -2.14981100       0.78286300       0.04332300
O        9.82068000       7.42554000      24.15880000      -1.34501200       1.87506100       0.45994100       0.20203100
O        3.21593000       8.51593000      25.79150000      -1.36045300      -1.07099600       1.19765600      -0.13474600
O        9.04048000       5.17365000      25.60080000      -1.32773100      -0.92525200       0.77169300       0.30765800
O        1.73409000       7.21217000       3.46422000      -1.36121500      -1.01426900      -0.44127600      -2.57677100
H        0.71532000       4.85542000       1.62377000       0.64467600       1.11829400       0.27240100       2.10190600
H        1.32804000       5.68322000       2.83354000       0.69140400       0.31020900       1.78231300       0.40056600
H        7.56448000       7.87552000       4.23004000       0.67587800      -0.37606200      -0.05043300      -0.21862900
H        6.64603000       6.80502000       4.85081000       0.64514800      -0.05117100      -0.35393900      -0.00372600
H        5.07015000       7.98108000       3.71136000       0.64109100      -0.60422800      -0.19454400       0.61347700
H        8.17373000       1.83519000       1.94359000       0.65351700      -1.12231500      -0.65295500       0.42944700
H        1.56275000       1.74849000      23.95440000       0.68388400      -0.32940500       0.59051600      -0.04472300
H        0.04462000       2.18366000      23.77540000       0.67900200      -0.45676600       0.65272600      -0.98880600
H        3.44363000       3.31100000      24.06490000       0.61325600      -0.20872300      -1.35011100      -0.02797400
H        3.01560000       2.97017000      22.73650000       0.63625900      -0.37462100      -0.11610300      -1.45309900
H       10.05530000       0.56250000       3.95597000       0.69931400       1.63050500       0.37494000       0.40046700
H        1.24228000       3.46789000       7.35508000       0.61769100       0.33867600       0.14173700       0.09746100
H        1.26009000       8.03454000       7.12176000       0.65761100      -0.98912600       0.30529800       0.53296900
H        8.92159000       3.98177000      23.84530000       0.64201000      -0.57535200      -0.51944900      -0.99968200
H        1.55355000       0.74299000       1.10910000       0.66100200      -0.71942100       1.31290800       0.37595300
H        8.65111000       1.14282000       4.05358000       0.67015700       0.40113400      -0.84249600      -0.32964100
H       10.13300000       7.34431000      27.67630000       0.64553100      -1.01645900       0.40787200       1.43288300
H        3.28025000       1.69745000      26.59710000       0.67157200       0.05246600      -0.80261500      -0.48929700
H        4.04692000       3.04474000      26.53760000       0.66731800      -0.67104500      -0.56881400       0.39509800
H        7.23897000       7.24092000       1.29920000       0.64552000       0.25974500       0.58901200      -0.58150200
H        1.19531000       1.97333000       0.22179000       0.64875300      -0.50799000       0.09206800       1.31849100
H        4.47160000       1.70497000      28.44460000       0.64034300      -0.96475900       0.51547100      -0.56231800
H        2.19771000       6.74794000      27.27340000       0.58917600      -0.50905700       0.24659700       0.08930900
H        1.32375000       5.46536000      27.22060000       0.66542000      -0.06429600       1.34650200       0.46811700
H        2.34571000       4.35083000       6.73438000       0.69279800       1.23405200       1.85961800       0.55708400
H        2.46617000       8.71136000       6.41095000       0.67074300       0.00616900       0.28229400      -0.13972000
H        1.57621000       3.40890000      26.50280000       0.65367100       0.46899600       0.32929600       0.05274400
H        0.23405000       4.13552000      26.24260000       0.67910500       0.24703600       0.66944600      -0.21392600
H        8.91957000       3.80439000      22.27730000       0.63148600       0.21443700       0.49218100      -0.99775600
H        4.42758000       0.23260000       2.99182000       0.63743100      -0.44015700       0.76438500      -0.34472000
H        5.75046000       2.17680000       7.11891000       0.59063300       0.17810800      -0.22656800      -0.65074600
H        8.38109000       3.13039000       4.90670000       0.68051500      -0.26386500      -0.67911500      -0.27737800
H        7.01683000       2.30970000       5.20503000       0.68424400      -0.63930500       0.06029600       0.89288500
H        4.40080000       6.55074000      29.27210000       0.65110500       0.42874200       0.73609700       0.15943400
H        5.44984000       7.27478000       0.00137000       0.72136500       0.56157000      -0.29557400       0.86139700
H        3.08626000       7.31202000      23.05100000       0.69409800       0.30143200      -0.14952300      -0.32669400
H        2.08862000       8.53194000      22.64280000       0.60152200       0.66803500      -0.84695700       0.19209500
H        5.27871000       3.27134000       6.23736000       0.65583700       0.07671600       0.55231300      -0.52344500
H        6.34305000       6.36426000       1.99666000       0.65095200      -0.70666300      -0.78602400       0.96893400
H        5.91003000       4.37680000      25.47560000       0.67168000       0.24266600       1.92256700      -0.85955300
H        5.81177000       2.92839000      24.67570000       0.68266300       0.15589800       0.91362300       0.47347300
H        9.54184000       8.74779000      27.99960000       0.62419600      -0.41999400      -1.81495600       0.31436100
H        7.08290000       5.18389000       0.19299000       0.64289900       0.01959400       0.06367200       0.40753700
H        7.81959000       3.82028000       0.20850000       0.67568200       0.34244100      -0.53741300       0.51065300
H        4.92539000       0.30656000      28.93820000       0.66435800      -0.09572600      -0.37955100      -0.15227500
H        1.37920000       4.65786000      24.41650000       0.66518500      -0.61152500      -0.04919000       1.53714100
H        8.91758000       4.71112000       6.54947000       0.64091500      -0.59948400       0.65655700       0.31885000
H        7.30121000       5.30867000      28.25520000       0.67324500       0.41119200       0.23908900       0.43682700
H        7.90658000       4.67915000       7.81776000       0.55515300       1.00920800       1.32023700      -1.38007700
H        1.08011000       5.80880000      23.35240000       0.66231000       0.11524400      -0.40034100       0.55634600
H        7.94846000       6.78161000      27.87390000       0.67443400      -0.36193300      -0.93040900       0.16860400
H        3.10792000       8.09486000       0.41520000       0.64861300      -0.13985800      -0.10986200       0.08161300
H        1.67955000       7.48194000       0.60594000       0.67562400      -0.06415300      -0.28512800      -0.10808000
H        6.90793000       2.88771000      26.61500000       0.65604700       0.24847500      -0.04385800       0.03907800
H        2.06162000       1.43985000       4.43403000       0.64682500      -0.98612100       0.42664300      -0.64092600
H        3.40733000       5.27728000      23.05540000       0.65390200      -0.42869600       0.12827600       0.30321600
H        6.64046000       1.89749000      27.67980000       0.68166200       0.05034300      -0.37927300       0.66068000
H        4.51991000       5.82108000      22.22820000       0.58909000       0.74142800      -0.03352300      -1.08208600
H        4.15312000       4.35045000       2.93044000       0.62568700      -0.01675800      -0.20434600      -0.30241500
H        2.78211000       4.13009000       2.23051000       0.66802600      -0.11676400      -0.15114100       0.65698800
H        2.72391000       2.10354000       6.21595000       0.66922700       0.80853400      -0.59858100      -0.23658300
H        5.12981000       1.54217000       0.77920000       0.62887400       0.71416600      -0.13918400       0.47450100
H        4.12932000       1.40732000       5.87149000       0.65766600       0.63093100       0.41311700      -0.01684700
H        5.31178000       2.48085000       1.92569000       0.65422700      -0.22808900       0.65596500       0.52829400
H        2.01637000       2.91634000      28.71120000       0.68179500       2.45076400       0.62365700      -0.35034400
H        4.04042000       5.66024000       7.84890000       0.57332900      -0.49815500       0.08721600      -0.39447000
H        3.14306000       6.51690000       6.90817000       0.71436900      -0.95300200       1.44483400      -0.02428900
H        7.06699000       0.27551000      23.64210000       0.67356500      -0.21074300       0.00159600       0.40381100
H        6.80997000       5.12442000       6.10549000       0.65457700       0.55236800       0.04536600       0.26098300
H        9.23024000       7.47325000       7.28215000       0.60592100      -0.29189500      -1.77159000      -0.21872700
H        5.37043000       5.70480000       6.09772000       0.66741500      -0.28851900      -0.42512600      -0.10480400
H        7.10554000       7.78592000      22.88630000       0.60093700       0.16459800      -0.27394200       0.38863700
H        9.24874000       0.00325000       7.80949000       0.53888500       0.05461200       0.09194000      -1.52232300
H        9.83988000       6.68734000       0.75162000       0.66629400       0.18645800       0.29607900       0.37807900
H        0.05860000       6.04481000      29.63030000       0.67090500      -0.23606700      -0.32370900      -2.26918800
H        1.37455000       2.10581000       3.12631000       0.64166800      -0.18023500      -0.75205000       1.21372000
H        9.28321000       8.46320000       2.10721000       0.71382500       0.19500800       0.84862100       1.87873500
H        0.45484000       3.66870000       5.20186000       0.67618900       0.34077100      -0.19420000      -0.11887400
H        9.30888000       0.01184000       0.61785000       0.65483100       0.26584700       0.52990700      -0.55759000
H        5.90311000       1.91662000      22.64640000       0.64731600      -0.56585900       0.17919200      -1.35161800
H        9.91548000       4.24911000       3.91168000       0.64677100       0.16689500      -0.27760200       1.26367700
H        6.01553000       6.54900000      26.49660000       0.67980700       0.98006200      -0.01895800       1.05229500
H        5.68266000       7.22499000      25.16660000       0.64222800       0.29918600      -0.18406900      -0.22626600
H        9.55953000       2.09279000       1.49985000       0.66910100       0.15830700       0.57537800       0.07530700
H        6.08605000       4.52350000       3.98750000       0.64399900       0.60063000      -0.05196400      -0.81155100
H        3.71324000       4.19973000       0.47051000       0.65841200      -0.00447700      -0.11248200       0.74393900
H        6.87548000       3.43389000       3.26854000       0.66864100       0.26359000       0.10476800       0.07334100
H        4.94935000       4.03644000      29.77990000       0.64610500       1.15317300      -0.32771100       0.03563100
H        0.79365000       2.36523000      28.16940000       0.69249100      -1.18654000      -1.10973800      -1.35802400
H        7.27170000       2.43113000      23.31390000       0.67403800      -1.33882500      -0.53258600      -0.40999600
H        0.19805000       1.37235000      26.03980000       0.66673800      -0.08209800      -0.04370400      -0.17663300
H        9.04746000       1.72668000      26.94130000       0.63045100       1.79454300      -0.47121700       0.10593900
H        0.55935000       7.90750000      24.12240000       0.64194800      -1.39771600      -0.88679600       0.04121000
H        9.14469000       8.05703000      23.87970000       0.68283000      -0.41473200      -0.14368500       0.02456800
H        3.84060000       7.81478000      25.94330000       0.65734700       0.72066000      -0.71973700      -0.18346000