 vasp.6.4.3 19Mar24 (build Sep  4 2024 12:23:58) complex                         
 executed on              LinuxNV date 2025.10.06  15:39:28
 running    4 mpi-ranks, with    1 threads/rank, on    1 nodes
 distrk:  each k-point on    2 cores,    2 groups
 distr:  one band on NCORE=   1 cores,    2 groups
 OpenACC runtime initialized ...    4 GPUs detected


--------------------------------------------------------------------------------------------------------


 INCAR:
   ENCUT = 800.000000
   SIGMA = 0.100000
   EDIFF = 1.00e-07
   ALGO = A
   METAGGA = R2SCAN
   PREC = Accurate
   IBRION = -1
   ICHARG = 1
   IDIPOL = 3
   ISMEAR = 0
   ISTART = 1
   KPAR = 2
   NELM = 300
   NPAR = 2
   NCORE = 1
   DIPOL = 0.5 0.5 0.5
   LASPH = .TRUE.
   LDIPOL = .TRUE.
   LVHAR = .TRUE.
   LMIXTAU = .TRUE.
   LVACPOTAV = .TRUE.
   LREAL = Auto

 POTCAR:    PAW_PBE Cu 22Jun2005                  
 POTCAR:    PAW_PBE O_h 06Feb2004                 
 POTCAR:    PAW_PBE H_h 06Feb2004                 
 POTCAR:    PAW_PBE Cu 22Jun2005                  
   VRHFIN =Cu: d10 p1                                                                               
   LEXCH  = PE                                                                                      
   EATOM  =  1390.9808 eV,  102.2342 Ry                                                             
                                                                                                    
   TITEL  = PAW_PBE Cu 22Jun2005                                                                    
   LULTRA =        F    use ultrasoft PP ?                                                          
   IUNSCR =        1    unscreen: 0-lin 1-nonlin 2-no                                               
   RPACOR =    2.000    partial core radius                                                         
   POMASS =   63.546; ZVAL   =   11.000    mass and valenz                                          
   RCORE  =    2.300    outmost cutoff radius                                                       
   RWIGS  =    2.200; RWIGS  =    1.164    wigner-seitz radius (au A)                               
   ENMAX  =  295.446; ENMIN  =  221.585 eV                                                          
   ICORE  =        3    local potential                                                             
   LCOR   =        T    correct aug charges                                                         
   LPAW   =        T    paw PP                                                                      
   EAUG   =  586.980                                                                                
   DEXC   =    0.000                                                                                
   RMAX   =    2.344    core radius for proj-oper                                                   
   RAUG   =    1.300    factor for augmentation sphere                                              
   RDEP   =    2.302    radius for radial grids                                                     
   RDEPT  =    1.771    core radius for aug-charge                                                  
                                                                                                    
   Atomic configuration                                                                             
    9 entries                                                                                       
     n  l   j            E        occ.                                                              
     1  0  0.50     -8850.2468   2.0000                                                             
     2  0  0.50     -1062.3498   2.0000                                                             
     2  1  1.50      -916.8226   6.0000                                                             
     3  0  0.50      -114.6929   2.0000                                                             
     3  1  1.50       -72.1325   6.0000                                                             
     3  2  2.50        -5.0394  10.0000                                                             
     4  0  0.50        -4.6097   1.0000                                                             
     4  1  0.50        -4.0817   0.0000                                                             
     4  3  2.50        -1.3606   0.0000                                                             
   Description                                                                                      
     l       E           TYP  RCUT    TYP  RCUT                                                     
     2     -5.0393973     23  2.200                                                                 
     2     10.8846608     23  2.200                                                                 
     0     -4.6097109     23  2.200                                                                 
     0      8.2520465     23  2.200                                                                 
     1     -2.7211652     23  2.200                                                                 
     1     21.7055443     23  2.200                                                                 
     3      2.7211652     23  2.300                                                                 
  local pseudopotential read in
  partial core-charges read in
  partial kinetic energy density read in
  atomic valenz-charges read in
  non local Contribution for L=            2  read in
    real space projection operators read in
  non local Contribution for L=            2  read in
    real space projection operators read in
  non local Contribution for L=            0  read in
    real space projection operators read in
  non local Contribution for L=            0  read in
    real space projection operators read in
  non local Contribution for L=            1  read in
    real space projection operators read in
  non local Contribution for L=            1  read in
    real space projection operators read in
    PAW grid and wavefunctions read in
 
   number of l-projection  operators is LMAX  =            6
   number of lm-projection operators is LMMAX =           18
 
 POTCAR:    PAW_PBE O_h 06Feb2004                 
   VRHFIN =O: s2p4                                                                                  
   LEXCH  = PE                                                                                      
   EATOM  =   432.3788 eV,   31.7789 Ry                                                             
                                                                                                    
   TITEL  = PAW_PBE O_h 06Feb2004                                                                   
   LULTRA =        F    use ultrasoft PP ?                                                          
   IUNSCR =        1    unscreen: 0-lin 1-nonlin 2-no                                               
   RPACOR =    0.800    partial core radius                                                         
   POMASS =   16.000; ZVAL   =    6.000    mass and valenz                                          
   RCORE  =    1.100    outmost cutoff radius                                                       
   RWIGS  =    1.400; RWIGS  =    0.741    wigner-seitz radius (au A)                               
   ENMAX  =  700.000; ENMIN  =  500.000 eV                                                          
   ICORE  =        2    local potential                                                             
   LCOR   =        T    correct aug charges                                                         
   LPAW   =        T    paw PP                                                                      
   EAUG   =  888.804                                                                                
   DEXC   =    0.000                                                                                
   RMAX   =    1.128    core radius for proj-oper                                                   
   RAUG   =    1.300    factor for augmentation sphere                                              
   RDEP   =    1.125    radius for radial grids                                                     
   RDEPT  =    1.088    core radius for aug-charge                                                  
                                                                                                    
   Atomic configuration                                                                             
    4 entries                                                                                       
     n  l   j            E        occ.                                                              
     1  0  0.50      -514.6923   2.0000                                                             
     2  0  0.50       -23.9615   2.0000                                                             
     2  1  0.50        -9.0305   4.0000                                                             
     3  2  1.50        -9.5241   0.0000                                                             
   Description                                                                                      
     l       E           TYP  RCUT    TYP  RCUT                                                     
     0    -23.9615319     23  1.100                                                                 
     0    -25.3221145     23  1.100                                                                 
     1     -9.0304911     23  1.100                                                                 
     1     -5.4802209     23  1.100                                                                 
     2     -9.5240782      7  1.100                                                                 
  local pseudopotential read in
  partial core-charges read in
  partial kinetic energy density read in
  atomic valenz-charges read in
  non local Contribution for L=            0  read in
    real space projection operators read in
  non local Contribution for L=            0  read in
    real space projection operators read in
  non local Contribution for L=            1  read in
    real space projection operators read in
  non local Contribution for L=            1  read in
    real space projection operators read in
    PAW grid and wavefunctions read in
 
   number of l-projection  operators is LMAX  =            4
   number of lm-projection operators is LMMAX =            8
 
 POTCAR:    PAW_PBE H_h 06Feb2004                 
   VRHFIN =H: ultrasoft test                                                                        
   LEXCH  = PE                                                                                      
   EATOM  =    12.4884 eV,    0.9179 Ry                                                             
                                                                                                    
   TITEL  = PAW_PBE H_h 06Feb2004                                                                   
   LULTRA =        F    use ultrasoft PP ?                                                          
   IUNSCR =        0    unscreen: 0-lin 1-nonlin 2-no                                               
   RPACOR =    0.000    partial core radius                                                         
   POMASS =    1.000; ZVAL   =    1.000    mass and valenz                                          
   RCORE  =    0.800    outmost cutoff radius                                                       
   RWIGS  =    0.700; RWIGS  =    0.370    wigner-seitz radius (au A)                               
   ENMAX  =  700.000; ENMIN  =  350.000 eV                                                          
   RCLOC  =    0.701    cutoff for local pot                                                        
   LCOR   =        T    correct aug charges                                                         
   LPAW   =        T    paw PP                                                                      
   EAUG   = 1000.000                                                                                
   RMAX   =    0.819    core radius for proj-oper                                                   
   RAUG   =    1.000    factor for augmentation sphere                                              
   RDEP   =    0.817    radius for radial grids                                                     
   RDEPT  =    0.817    core radius for aug-charge                                                  
                                                                                                    
   Atomic configuration                                                                             
    2 entries                                                                                       
     n  l   j            E        occ.                                                              
     1  0  0.50        -6.4927   1.0000                                                             
     2  1  0.50        -3.4015   0.0000                                                             
   Description                                                                                      
     l       E           TYP  RCUT    TYP  RCUT                                                     
     0     -6.4927493     23  0.800                                                                 
     0      6.8029130     23  0.800                                                                 
     1     -6.8029130     23  0.800                                                                 
  local pseudopotential read in
  atomic valenz-charges read in
  non local Contribution for L=            0  read in
    real space projection operators read in
  non local Contribution for L=            0  read in
    real space projection operators read in
  non local Contribution for L=            1  read in
    real space projection operators read in
    PAW grid and wavefunctions read in
 
   number of l-projection  operators is LMAX  =            3
   number of lm-projection operators is LMMAX =            5
 
 Optimization of the real space projectors (new method)

 maximal supplied QI-value         = 16.25
 optimisation between [QCUT,QGAM] = [ 14.46, 28.93] = [ 58.58,234.33] Ry 
 Optimized for a Real-space Cutoff    1.35 Angstroem

   l    n(q)    QCUT    max X(q) W(low)/X(q) W(high)/X(q)  e(spline) 
   2     11    14.464     4.610    0.56E-04    0.10E-03    0.52E-06
   2     11    14.464     8.522    0.88E-04    0.16E-03    0.84E-06
   0     12    14.464    51.609    0.44E-04    0.29E-04    0.63E-06
   0     12    14.464    27.747    0.38E-04    0.27E-04    0.60E-06
   1     11    14.464    20.408    0.64E-04    0.66E-04    0.14E-06
   1     11    14.464    13.425    0.56E-04    0.59E-04    0.13E-06
 Optimization of the real space projectors (new method)

 maximal supplied QI-value         = 34.20
 optimisation between [QCUT,QGAM] = [ 14.37, 28.73] = [ 57.79,231.16] Ry 
 Optimized for a Real-space Cutoff    0.98 Angstroem

   l    n(q)    QCUT    max X(q) W(low)/X(q) W(high)/X(q)  e(spline) 
   0      8    14.366   280.207    0.54E-04    0.14E-03    0.22E-06
   0      8    14.366   228.978    0.55E-04    0.14E-03    0.22E-06
   1      8    14.366    86.127    0.24E-03    0.25E-03    0.26E-06
   1      8    14.366    65.368    0.24E-03    0.24E-03    0.26E-06
 Optimization of the real space projectors (new method)

 maximal supplied QI-value         = 47.24
 optimisation between [QCUT,QGAM] = [ 14.17, 28.82] = [ 56.25,232.56] Ry 
 Optimized for a Real-space Cutoff    0.95 Angstroem

   l    n(q)    QCUT    max X(q) W(low)/X(q) W(high)/X(q)  e(spline) 
   0      8    14.173    34.671    0.25E-03    0.45E-03    0.25E-06
   0      8    14.173    17.046    0.24E-03    0.43E-03    0.25E-06
   1      8    14.173     1.978    0.58E-04    0.22E-03    0.31E-06
 -----------------------------------------------------------------------------
|                                                                             |
|               ----> ADVICE to this user running VASP <----                  |
|                                                                             |
|     You enforced a specific xc type in the INCAR file but a different       |
|     type was found in the POTCAR file.                                      |
|     I HOPE YOU KNOW WHAT YOU ARE DOING!                                     |
|                                                                             |
 -----------------------------------------------------------------------------

  PAW_PBE Cu 22Jun2005                  :
 energy of atom  1       EATOM=-1390.9808
 kinetic energy error for atom=    0.0007 (will be added to EATOM!!)
  PAW_PBE O_h 06Feb2004                 :
 energy of atom  2       EATOM= -432.3788
 kinetic energy error for atom=    0.0500 (will be added to EATOM!!)
  PAW_PBE H_h 06Feb2004                 :
 energy of atom  3       EATOM=  -12.4884
 kinetic energy error for atom=    0.0035 (will be added to EATOM!!)
 
 
 POSCAR: Cu O  H
  positions in cartesian coordinates
  No initial velocities read in


 exchange-correlation table for R2SCAN
   RHO(1)=    0.500       N(1)  =     2000
   RHO(2)=  100.500       N(2)  =     4000
 


--------------------------------------------------------------------------------------------------------


 ion  position               nearest neighbor table
   1  0.692  0.135  0.386-  16 2.46   2 2.52   5 2.56  15 2.56  18 2.56   8 2.61  32 2.61  17 2.66
                             4 2.71
   2  0.940  0.149  0.388-  18 2.45   6 2.45  13 2.45   1 2.52   3 2.55   5 2.55  19 2.59  29 2.70
                            16 2.77
   3  0.190  0.142  0.393-  19 2.34  20 2.34   4 2.41  30 2.45   7 2.50  14 2.54   2 2.55   6 2.61
                            13 2.65
   4  0.425  0.132  0.384-   3 2.41  14 2.54   7 2.57  15 2.58  20 2.61  31 2.64   8 2.65   1 2.71
                            17 2.79
   5  0.805  0.395  0.389-  12 2.39   9 2.46  21 2.47   8 2.50   6 2.54  22 2.54   2 2.55   1 2.56
                            18 2.56
   6  0.055  0.393  0.388-   9 2.36  22 2.44   2 2.45   5 2.54   7 2.55  10 2.57  23 2.58   3 2.61
                            19 2.62
   7  0.306  0.391  0.387-  10 2.49   3 2.50  23 2.50   6 2.55   8 2.56   4 2.57  24 2.59  11 2.59
                            20 2.59
   8  0.559  0.390  0.388-  24 2.42  12 2.47   5 2.50  11 2.53   7 2.56  17 2.57   1 2.61   4 2.65
                            21 2.66
   9  0.941  0.627  0.390-   6 2.36  22 2.40  26 2.41   5 2.46  10 2.54  13 2.57  12 2.60  25 2.63
                            16 2.69
  10  0.191  0.641  0.390-  14 2.39  27 2.45  26 2.46   7 2.49  23 2.50  11 2.52   9 2.54   6 2.57
                            13 2.71
  11  0.439  0.642  0.391-  27 2.41  24 2.43  15 2.49  12 2.50  28 2.51  10 2.52   8 2.53  14 2.55
                             7 2.59
  12  0.685  0.629  0.393-  21 2.39   5 2.39  25 2.46   8 2.47  16 2.49  11 2.50  28 2.54  15 2.59
                             9 2.60
  13  0.040  0.896  0.388-  29 2.43   2 2.45  16 2.49  30 2.56   9 2.57  14 2.62   3 2.65  26 2.66
                            10 2.71
  14  0.299  0.883  0.388-  10 2.39  30 2.44  27 2.47   3 2.54   4 2.54  11 2.55  13 2.62  31 2.65
                            15 2.68
  15  0.562  0.885  0.386-  16 2.35  11 2.49   1 2.56   4 2.58  12 2.59  31 2.66  32 2.66  14 2.68
                            28 2.76
  16  0.794  0.882  0.388-  15 2.35  32 2.44   1 2.46  12 2.49  13 2.49  25 2.57  29 2.66   9 2.69
                             2 2.77
  17  0.563  0.224  0.435-  24 2.45  37 2.48  40 2.49  20 2.51  21 2.52  31 2.53   8 2.57  18 2.58
                            33 2.61  32 2.61   1 2.66   4 2.79
  18  0.816  0.212  0.434-   2 2.45  32 2.47  38 2.54  29 2.56   5 2.56   1 2.56  37 2.57  21 2.57
                            17 2.58  34 2.58  19 2.63  22 2.63
  19  0.075  0.218  0.436-   3 2.34  39 2.41  20 2.44  23 2.51  30 2.54  38 2.55  35 2.55   2 2.59
                            22 2.61   6 2.62  18 2.63  29 2.68
  20  0.316  0.221  0.434-   3 2.34  19 2.44  31 2.47  23 2.48  17 2.51  40 2.52  24 2.53  39 2.55
                             7 2.59   4 2.61  36 2.63  30 2.68
  21  0.693  0.468  0.436-  12 2.39  41 2.43   5 2.47  44 2.48  17 2.52  24 2.52  37 2.53  22 2.55
                            25 2.55  18 2.57  28 2.62   8 2.66
  22  0.944  0.473  0.434-  26 2.36   9 2.40   6 2.44  42 2.49   5 2.54  21 2.55  41 2.55  23 2.56
                            25 2.61  19 2.61  38 2.63  18 2.63
  23  0.196  0.467  0.434-  20 2.48  43 2.48  10 2.50   7 2.50  19 2.51  26 2.53  24 2.53  22 2.56
                            42 2.57   6 2.58  27 2.58  39 2.60
  24  0.445  0.467  0.433-   8 2.42  11 2.43  17 2.45  28 2.47  21 2.52  23 2.53  20 2.53  44 2.55
                             7 2.59  27 2.62  43 2.62  40 2.65
  25  0.809  0.726  0.436-  48 2.41  29 2.42  32 2.43  45 2.44  12 2.46  26 2.54  21 2.55  41 2.56
                            16 2.57  28 2.60  22 2.61   9 2.63
  26  0.058  0.707  0.434-  22 2.36   9 2.41  10 2.46  29 2.51  23 2.53  30 2.53  45 2.53  25 2.54
                            42 2.55  46 2.58  27 2.63  13 2.66
  27  0.317  0.726  0.434-  28 2.40  11 2.41  30 2.44  10 2.45  14 2.47  31 2.51  47 2.51  46 2.56
                            23 2.58  24 2.62  26 2.63  43 2.66
  28  0.553  0.718  0.438-  47 2.33  27 2.40  48 2.44  44 2.47  24 2.47  11 2.51  12 2.54  31 2.56
                            25 2.60  21 2.62  32 2.63  15 2.76
  29  0.938  0.957  0.435-  25 2.42  13 2.43  32 2.47  30 2.49  45 2.50  35 2.50  34 2.51  26 2.51
                            18 2.56  16 2.66  19 2.68   2 2.70
  30  0.183  0.956  0.433-  27 2.44  14 2.44   3 2.45  29 2.49  26 2.53  19 2.54  13 2.56  35 2.56
                            46 2.57  31 2.57  36 2.60  20 2.68
  31  0.436  0.977  0.435-  20 2.47  36 2.48  33 2.50  27 2.51  17 2.53  28 2.56  30 2.57  32 2.62
                            47 2.63   4 2.64  14 2.65  15 2.66
  32  0.694  0.969  0.435-  25 2.43  16 2.44  18 2.47  34 2.47  29 2.47  33 2.54  48 2.58   1 2.61
                            17 2.61  31 2.62  28 2.63  15 2.66
  33  0.562  0.042  0.481-  31 2.50  47 2.54  36 2.54  40 2.54  48 2.54  52 2.54  63 2.54  37 2.54
                            49 2.54  34 2.54  32 2.54  17 2.61
  34  0.813  0.042  0.481-  32 2.47  29 2.51  35 2.54  45 2.54  38 2.54  48 2.54  50 2.54  64 2.54
                            37 2.54  49 2.54  33 2.54  18 2.58
  35  0.062  0.042  0.481-  29 2.50  34 2.54  45 2.54  46 2.54  61 2.54  38 2.54  50 2.54  39 2.54
                            51 2.54  36 2.54  19 2.55  30 2.56
  36  0.313  0.042  0.481-  31 2.48  33 2.54  47 2.54  46 2.54  62 2.54  40 2.54  39 2.54  52 2.54
                            51 2.54  35 2.54  30 2.60  20 2.63
  37  0.688  0.292  0.481-  17 2.48  21 2.53  38 2.54  40 2.54  41 2.54  44 2.54  53 2.54  56 2.54
                            33 2.54  34 2.54  49 2.54  18 2.57
  38  0.937  0.292  0.481-  41 2.54  42 2.54  37 2.54  53 2.54  34 2.54  54 2.54  39 2.54  35 2.54
                            50 2.54  18 2.54  19 2.55  22 2.63
  39  0.187  0.292  0.481-  19 2.41  42 2.54  43 2.54  54 2.54  55 2.54  38 2.54  35 2.54  36 2.54
                            51 2.54  40 2.54  20 2.55  23 2.60
  40  0.438  0.292  0.481-  17 2.49  20 2.52  44 2.54  37 2.54  43 2.54  56 2.54  33 2.54  55 2.54
                            36 2.54  52 2.54  39 2.54  24 2.65
  41  0.813  0.542  0.481-  21 2.43  38 2.54  42 2.54  37 2.54  45 2.54  57 2.54  48 2.54  53 2.54
                            60 2.54  44 2.54  22 2.55  25 2.56
  42  0.062  0.542  0.481-  22 2.49  41 2.54  38 2.54  39 2.54  45 2.54  57 2.54  46 2.54  54 2.54
                            58 2.54  43 2.54  26 2.55  23 2.57
  43  0.313  0.542  0.481-  23 2.48  44 2.54  40 2.54  39 2.54  47 2.54  46 2.54  55 2.54  59 2.54
                            58 2.54  42 2.54  24 2.62  27 2.66
  44  0.562  0.542  0.481-  28 2.47  21 2.48  40 2.54  43 2.54  37 2.54  47 2.54  59 2.54  48 2.54
                            56 2.54  60 2.54  41 2.54  24 2.55
  45  0.937  0.792  0.481-  25 2.44  29 2.50  26 2.53  34 2.54  48 2.54  35 2.54  41 2.54  64 2.54
                            46 2.54  42 2.54  61 2.54  57 2.54
  46  0.187  0.792  0.481-  35 2.54  36 2.54  45 2.54  42 2.54  43 2.54  58 2.54  61 2.54  62 2.54
                            47 2.54  27 2.56  30 2.57  26 2.58
  47  0.438  0.792  0.481-  28 2.33  27 2.51  33 2.54  48 2.54  44 2.54  36 2.54  63 2.54  43 2.54
                            59 2.54  62 2.54  46 2.54  31 2.63
  48  0.688  0.792  0.481-  25 2.41  28 2.44  45 2.54  47 2.54  33 2.54  34 2.54  41 2.54  44 2.54
                            60 2.54  63 2.54  64 2.54  32 2.58
  49  0.688  0.125  0.527-  80 2.47  52 2.54  50 2.54  56 2.54  53 2.54  64 2.54  63 2.54  37 2.54
                            33 2.54  34 2.54  65 2.54  66 2.66
  50  0.937  0.125  0.527-  77 2.46  66 2.52  53 2.54  54 2.54  64 2.54  49 2.54  61 2.54  34 2.54
                            51 2.54  35 2.54  38 2.54  67 2.57
  51  0.187  0.125  0.527-  67 2.47  78 2.49  54 2.54  55 2.54  61 2.54  62 2.54  50 2.54  39 2.54
                            35 2.54  36 2.54  52 2.54  68 2.74
  52  0.438  0.125  0.527-  56 2.54  63 2.54  49 2.54  55 2.54  62 2.54  33 2.54  40 2.54  36 2.54
                            51 2.54  79 2.54  65 2.59  68 2.61
  53  0.813  0.375  0.527-  50 2.54  54 2.54  49 2.54  38 2.54  57 2.54  37 2.54  60 2.54  41 2.54
                            56 2.54  66 2.54  70 2.57  69 2.58
  54  0.062  0.375  0.527-  70 2.41  67 2.48  53 2.54  50 2.54  51 2.54  38 2.54  39 2.54  57 2.54
                            58 2.54  42 2.54  55 2.54  71 2.57
  55  0.313  0.375  0.527-  71 2.52  56 2.54  52 2.54  51 2.54  40 2.54  39 2.54  59 2.54  58 2.54
                            43 2.54  54 2.54  72 2.59  68 2.66
  56  0.562  0.375  0.527-  65 2.47  52 2.54  55 2.54  49 2.54  40 2.54  59 2.54  37 2.54  60 2.54
                            44 2.54  53 2.54  72 2.55  69 2.60
  57  0.937  0.625  0.527-  70 2.40  73 2.50  60 2.54  53 2.54  64 2.54  41 2.54  58 2.54  54 2.54
                            61 2.54  42 2.54  45 2.54  74 2.66
  58  0.187  0.625  0.527-  57 2.54  54 2.54  55 2.54  61 2.54  62 2.54  46 2.54  42 2.54  43 2.54
                            59 2.54  74 2.54  71 2.57  75 2.67
  59  0.438  0.625  0.527-  76 2.52  60 2.54  56 2.54  63 2.54  44 2.54  55 2.54  62 2.54  47 2.54
                            43 2.54  58 2.54  75 2.55  72 2.58
  60  0.688  0.625  0.527-  76 2.35  69 2.53  57 2.54  59 2.54  53 2.54  56 2.54  63 2.54  64 2.54
                            48 2.54  44 2.54  41 2.54  73 2.59
  61  0.062  0.875  0.527-  77 2.46  64 2.54  50 2.54  51 2.54  35 2.54  57 2.54  45 2.54  58 2.54
                            46 2.54  62 2.54  74 2.54  78 2.64
  62  0.313  0.875  0.527-  78 2.43  63 2.54  52 2.54  51 2.54  36 2.54  59 2.54  58 2.54  47 2.54
                            46 2.54  61 2.54  75 2.57  79 2.61
  63  0.562  0.875  0.527-  79 2.49  76 2.52  52 2.54  62 2.54  59 2.54  49 2.54  47 2.54  33 2.54
                            60 2.54  48 2.54  64 2.54  80 2.56
  64  0.813  0.875  0.527-  80 2.43  73 2.49  77 2.52  61 2.54  50 2.54  57 2.54  49 2.54  45 2.54
                            34 2.54  60 2.54  48 2.54  63 2.54
  65  0.568  0.220  0.573-  72 2.45  68 2.46  56 2.47  69 2.50  85 2.53  49 2.54  81 2.55  79 2.58
                            52 2.59  66 2.62  80 2.64  88 2.66
  66  0.826  0.215  0.574-  82 2.44  67 2.50  85 2.51  77 2.52  50 2.52  53 2.54  86 2.56  80 2.57
                            70 2.58  69 2.61  65 2.62  49 2.66
  67  0.072  0.213  0.572-  71 2.45  51 2.47  54 2.48  66 2.50  70 2.56  83 2.56  77 2.56  50 2.57
                            68 2.57  78 2.59  86 2.61  87 2.66
  68  0.325  0.210  0.577-  84 2.39  65 2.46  72 2.47  78 2.47  87 2.52  79 2.53  88 2.54  71 2.54
                            67 2.57  52 2.61  55 2.66  51 2.74
  69  0.690  0.467  0.574-  76 2.33  89 2.33  92 2.45  85 2.47  65 2.50  72 2.52  60 2.53  73 2.56
                            53 2.58  56 2.60  66 2.61  70 2.67
  70  0.953  0.469  0.571-  57 2.40  54 2.41  71 2.44  90 2.45  74 2.50  89 2.53  73 2.54  67 2.56
                            53 2.57  66 2.58  86 2.67  69 2.67
  71  0.193  0.455  0.574-  70 2.44  67 2.45  90 2.49  72 2.51  87 2.51  55 2.52  68 2.54  58 2.57
                            54 2.57  74 2.59  91 2.61  75 2.63
  72  0.441  0.457  0.574-  65 2.45  92 2.46  68 2.47  91 2.48  71 2.51  69 2.52  76 2.54  75 2.55
                            56 2.55  59 2.58  55 2.59  88 2.65
  73  0.822  0.716  0.573-  93 2.44  76 2.47  89 2.48  64 2.49  80 2.49  77 2.49  57 2.50  70 2.54
                            74 2.56  69 2.56  60 2.59  96 2.60
  74  0.075  0.716  0.574-  90 2.36  94 2.43  93 2.47  70 2.50  75 2.53  58 2.54  61 2.54  77 2.55
                            73 2.56  78 2.57  71 2.59  57 2.66
  75  0.324  0.714  0.575-  94 2.43  78 2.49  79 2.50  74 2.53  95 2.54  72 2.55  59 2.55  62 2.57
                            91 2.57  76 2.59  71 2.63  58 2.67
  76  0.579  0.698  0.571-  69 2.33  60 2.35  73 2.47  63 2.52  59 2.52  72 2.54  92 2.55  75 2.59
                            80 2.62  96 2.63  79 2.65  95 2.74
  77  0.943  0.963  0.572-  93 2.40  50 2.46  61 2.46  80 2.47  82 2.49  73 2.49  66 2.52  64 2.52
                            74 2.55  67 2.56  83 2.57  78 2.69
  78  0.208  0.964  0.573-  94 2.42  62 2.43  79 2.44  68 2.47  51 2.49  75 2.49  84 2.50  74 2.57
                            67 2.59  61 2.64  83 2.64  77 2.69
  79  0.449  0.960  0.574-  81 2.44  78 2.44  63 2.49  75 2.50  68 2.53  52 2.54  95 2.54  80 2.55
                            65 2.58  62 2.61  84 2.61  76 2.65
  80  0.700  0.962  0.572-  64 2.43  77 2.47  49 2.47  82 2.48  73 2.49  81 2.53  79 2.55  63 2.56
                            66 2.57  76 2.62  65 2.64  96 2.77
  81  0.571  0.039  0.618-  95 2.43  79 2.44  80 2.53  82 2.54  65 2.55  88 2.58  84 2.60  96 2.64
                            85 2.64
  82  0.821  0.044  0.617-  93 2.37  66 2.44  83 2.48  80 2.48  77 2.49  81 2.54  85 2.59  86 2.64
                            96 2.71
  83  0.065  0.046  0.619-  93 2.42  82 2.48  94 2.49  84 2.53  86 2.54  67 2.56  77 2.57  87 2.63
                            78 2.64
  84  0.315  0.050  0.620-  68 2.39  94 2.43  78 2.50  88 2.52  87 2.53  83 2.53  95 2.58  81 2.60
                            79 2.61
  85  0.697  0.302  0.619-  89 2.39  69 2.47  92 2.49  66 2.51  65 2.53  88 2.56  86 2.58  82 2.59
                            81 2.64
  86  0.951  0.304  0.621-  90 2.50  87 2.50  89 2.50  83 2.54  66 2.56  85 2.58  67 2.61  82 2.64
                            70 2.67
  87  0.198  0.304  0.621-  91 2.44  86 2.50  71 2.51  68 2.52  88 2.52  84 2.53  90 2.61  83 2.63
                            67 2.66
  88  0.446  0.293  0.624-  91 2.46  92 2.49  87 2.52  84 2.52  68 2.54  85 2.56  81 2.58  72 2.65
                            65 2.66
  89  0.813  0.538  0.616-  69 2.33  85 2.39  96 2.42  73 2.48  86 2.50  70 2.53  92 2.53  90 2.54
                            93 2.73
  90  0.063  0.556  0.617-  74 2.36  70 2.45  71 2.49  86 2.50  89 2.54  93 2.56  87 2.61  94 2.61
                            91 2.70
  91  0.328  0.538  0.621-  92 2.39  87 2.44  88 2.46  72 2.48  75 2.57  71 2.61  95 2.62  90 2.70
                            94 2.72
  92  0.564  0.540  0.619-  91 2.39  96 2.44  69 2.45  72 2.46  88 2.49  85 2.49  89 2.53  76 2.55
                            95 2.57
  93  0.940  0.812  0.616-  82 2.37  77 2.40  83 2.42  73 2.44  74 2.47  96 2.54  90 2.56  94 2.62
                            89 2.73
  94  0.199  0.809  0.617-  78 2.42  84 2.43  75 2.43  74 2.43  83 2.49  95 2.55  90 2.61  93 2.62
                            91 2.72
  95  0.450  0.801  0.621-  81 2.43  96 2.48  79 2.54  75 2.54  94 2.55  92 2.57  84 2.58  91 2.62
                            76 2.74
  96  0.693  0.775  0.622-  89 2.42  92 2.44  95 2.48  93 2.54  73 2.60  76 2.63  81 2.64  82 2.71
                            80 2.77
  97  0.116  0.546  0.224- 148 0.95 147 1.03
  98  0.661  0.844  0.259- 150 0.96 149 0.98
  99  0.859  0.292  0.205- 152 0.94 230 0.99
 100  0.064  0.193  0.710- 154 0.95 153 0.98
 101  0.314  0.285  0.693- 156 0.95 155 1.00
 102  0.181  0.407  0.315- 171 0.94 158 0.97
 103  0.853  0.385  0.683- 175 0.96 160 1.01
 104  0.904  0.039  0.251- 157 0.94 162 1.01
 105  0.926  0.885  0.799- 188 1.02 163 1.04
 106  0.325  0.292  0.770- 164 0.96 165 1.00
 107  0.105  0.188  0.194- 167 1.02 161 1.03
 108  0.133  0.731  0.784- 169 0.97 170 1.04
 109  0.190  0.900  0.312- 159 0.94 172 0.98
 110  0.119  0.488  0.755- 173 0.97 174 0.98
 111  0.410  0.952  0.249- 176 0.96 151 0.99
 112  0.558  0.272  0.305- 184 0.96 177 0.99
 113  0.763  0.277  0.270- 179 0.95 178 1.00
 114  0.473  0.847  0.825- 181 0.96 180 0.99
 115  0.230  0.895  0.688- 182 0.97 183 0.99
 116  0.632  0.771  0.193- 185 0.95 166 0.97
 117  0.561  0.395  0.737- 186 0.93 187 1.01
 118  0.727  0.507  0.832- 190 0.96 189 0.97
 119  0.510  0.142  0.813- 168 0.95 191 0.97
 120  0.157  0.570  0.694- 192 0.94 196 0.98
 121  0.815  0.601  0.325- 193 1.00 195 1.04
 122  0.722  0.688  0.784- 194 0.98 197 1.01
 123  0.224  0.932  0.188- 199 0.97 198 0.97
 124  0.728  0.275  0.778- 203 0.97 200 0.98
 125  0.117  0.194  0.257- 222 1.00 201 1.01
 126  0.415  0.663  0.684- 204 0.95 202 0.97
 127  0.363  0.425  0.220- 205 0.97 206 0.99
 128  0.314  0.147  0.298- 209 0.95 207 1.00
 129  0.551  0.183  0.204- 210 0.95 208 0.99
 130  0.355  0.648  0.323- 213 0.95 212 0.99
 131  0.719  0.924  0.699- 218 0.98 214 0.98
 132  0.590  0.584  0.292- 215 0.98 217 0.98
 133  0.920  0.949  0.322- 216 0.95 219 1.02
 134  0.039  0.696  0.848- 221 0.93 220 0.98
 135  0.631  0.217  0.691- 226 0.95 236 1.03
 136  0.891  0.927  0.195- 225 0.95 223 0.95
 137  0.963  0.461  0.276- 224 0.97 227 1.00
 138  0.528  0.750  0.744- 228 0.95 229 0.97
 139  0.634  0.487  0.236- 233 0.97 231 0.99
 140  0.399  0.492  0.831- 234 0.94 232 0.96
 141  0.111  0.321  0.813- 211 0.92 235 0.94
 142  0.990  0.160  0.770- 237 0.98 238 1.04
 143  0.968  0.846  0.707- 240 0.97 239 1.00
 144  0.317  0.970  0.743- 241 0.95 242 1.00
 145  0.892  0.589  0.739- 243 1.01 244 1.01
 146  0.171  0.821  0.245- 246 0.93 245 0.97
 147  0.071  0.553  0.204-  97 1.03
 148  0.131  0.647  0.231-  97 0.95
 149  0.746  0.897  0.262-  98 0.98
 150  0.655  0.775  0.276-  98 0.96
 151  0.500  0.909  0.250- 111 0.99
 152  0.806  0.209  0.211-  99 0.94
 153  0.154  0.199  0.702- 100 0.98
 154  0.004  0.249  0.698- 100 0.95
 155  0.340  0.377  0.705- 101 1.00
 156  0.297  0.338  0.675- 101 0.95
 157  0.992  0.064  0.256- 104 0.94
 158  0.123  0.395  0.332- 102 0.97
 159  0.124  0.915  0.327- 109 0.94
 160  0.880  0.453  0.700- 103 1.01
 161  0.153  0.085  0.192- 107 1.03
 162  0.853  0.130  0.258- 104 1.01
 163  0.999  0.836  0.786- 105 1.04
 164  0.323  0.193  0.761- 106 0.96
 165  0.399  0.347  0.760- 106 1.00
 166  0.714  0.825  0.196- 116 0.97
 167  0.118  0.225  0.172- 107 1.02
 168  0.441  0.194  0.803- 119 0.95
 169  0.217  0.768  0.777- 108 0.97
 170  0.131  0.622  0.775- 108 1.04
 171  0.231  0.495  0.318- 102 0.94
 172  0.243  0.992  0.311- 109 0.98
 173  0.155  0.388  0.759- 110 0.97
 174  0.023  0.471  0.754- 110 0.98
 175  0.880  0.433  0.665- 103 0.96
 176  0.437  0.026  0.234- 111 0.96
 177  0.567  0.248  0.326- 112 0.99
 178  0.827  0.356  0.277- 113 1.00
 179  0.692  0.263  0.284- 113 0.95
 180  0.434  0.746  0.821- 114 0.99
 181  0.537  0.828  0.840- 114 0.96
 182  0.304  0.833  0.682- 115 0.97
 183  0.206  0.972  0.673- 115 0.99
 184  0.521  0.373  0.307- 112 0.96
 185  0.626  0.725  0.212- 116 0.95
 186  0.583  0.498  0.736- 117 0.93
 187  0.573  0.333  0.719- 117 1.01
 188  0.941  0.996  0.793- 105 1.02
 189  0.698  0.590  0.845- 118 0.97
 190  0.771  0.435  0.845- 118 0.96
 191  0.486  0.035  0.814- 119 0.97
 192  0.136  0.530  0.713- 120 0.94
 193  0.879  0.536  0.314- 121 1.00
 194  0.720  0.605  0.798- 122 0.98
 195  0.780  0.533  0.342- 121 1.04
 196  0.107  0.661  0.689- 120 0.98
 197  0.784  0.772  0.790- 122 1.01
 198  0.306  0.922  0.177- 123 0.97
 199  0.166  0.852  0.181- 123 0.97
 200  0.681  0.329  0.762- 124 0.98
 201  0.203  0.164  0.266- 125 1.01
 202  0.336  0.601  0.682- 126 0.97
 203  0.655  0.216  0.786- 124 0.97
 204  0.446  0.663  0.664- 126 0.95
 205  0.410  0.495  0.233- 127 0.97
 206  0.274  0.470  0.217- 127 0.99
 207  0.269  0.240  0.306- 128 1.00
 208  0.506  0.176  0.185- 129 0.99
 209  0.407  0.160  0.299- 128 0.95
 210  0.524  0.282  0.210- 129 0.95
 211  0.199  0.332  0.809- 141 0.92
 212  0.398  0.645  0.343- 130 0.99
 213  0.310  0.742  0.322- 130 0.95
 214  0.697  0.031  0.695- 131 0.98
 215  0.672  0.584  0.304- 132 0.98
 216  0.910  0.851  0.330- 133 0.95
 217  0.530  0.650  0.304- 132 0.98
 218  0.701  0.887  0.679- 131 0.98
 219  0.912  0.000  0.342- 133 1.02
 220  0.970  0.761  0.857- 134 0.98
 221  0.006  0.688  0.829- 134 0.93
 222  0.136  0.240  0.237- 125 1.00
 223  0.915  0.964  0.215- 136 0.95
 224  0.045  0.418  0.284- 137 0.97
 225  0.918  0.001  0.181- 136 0.95
 226  0.582  0.218  0.673- 135 0.95
 227  0.978  0.484  0.255- 137 1.00
 228  0.593  0.746  0.759- 138 0.95
 229  0.560  0.823  0.729- 138 0.97
 230  0.943  0.238  0.201-  99 0.99
 231  0.600  0.515  0.257- 139 0.99
 232  0.366  0.478  0.851- 140 0.96
 233  0.678  0.391  0.240- 139 0.97
 234  0.488  0.460  0.833- 140 0.94
 235  0.078  0.269  0.797- 141 0.94
 236  0.717  0.277  0.688- 135 1.03
 237  0.020  0.156  0.749- 142 0.98
 238  0.892  0.197  0.769- 142 1.04
 239  0.055  0.900  0.706- 143 1.00
 240  0.902  0.917  0.701- 143 0.97
 241  0.379  0.890  0.747- 144 0.95
 242  0.282  0.960  0.723- 144 1.00
 243  0.916  0.692  0.731- 145 1.01
 244  0.824  0.608  0.756- 145 1.01
 245  0.223  0.896  0.234- 146 0.97
 246  0.183  0.827  0.265- 146 0.93
 
  LATTYP: Found a simple orthorhombic cell.
 ALAT       =     8.7818242400
 B/A-ratio  =     1.1547005384
 C/A-ratio  =     5.0990009338
  
  Lattice vectors:
  
 A1 = (   0.0000000000,  -8.7818242400,   0.0000000000)
 A2 = (  10.1403771780,   0.0000000000,   0.0000000000)
 A3 = (   0.0000000000,   0.0000000000,  44.7785300000)


Analysis of symmetry for initial positions (statically):
=====================================================================
 Subroutine PRICEL returns:
 Original cell was already a primitive cell.
 

 Routine SETGRP: Setting up the symmetry group for a 
 simple orthorhombic supercell.


 Subroutine GETGRP returns: Found  1 space group operations
 (whereof  1 operations were pure point group operations)
 out of a pool of  8 trial point group operations.


The static configuration has the point symmetry C_1 .


Analysis of symmetry for dynamics (positions and initial velocities):
=====================================================================
 Subroutine PRICEL returns:
 Original cell was already a primitive cell.
 

 Routine SETGRP: Setting up the symmetry group for a 
 simple orthorhombic supercell.


 Subroutine GETGRP returns: Found  1 space group operations
 (whereof  1 operations were pure point group operations)
 out of a pool of  8 trial point group operations.


The dynamic configuration has the point symmetry C_1 .


 Subroutine INISYM returns: Found  1 space group operations
 (whereof  1 operations are pure point group operations),
 and found     1 'primitive' translations


----------------------------------------------------------------------------------------

                                     Primitive cell                                     

  volume of cell :    3987.5733

  direct lattice vectors                    reciprocal lattice vectors
    10.140377178  0.000000000  0.000000000     0.098615661  0.000000000  0.000000000
     0.000000000  8.781824240  0.000000000     0.000000000  0.113871557  0.000000000
     0.000000000  0.000000000 44.778530000     0.000000000  0.000000000  0.022332131

  length of vectors
    10.140377178  8.781824240 44.778530000     0.098615661  0.113871557  0.022332131

  position of ions in fractional coordinates (direct lattice)
     0.691724763  0.135312433  0.386379812
     0.939662286  0.149046481  0.388489975
     0.190291738  0.141688101  0.392684396
     0.424862895  0.131554671  0.384161785
     0.805238292  0.394700452  0.389304874
     0.055480185  0.393398900  0.388432581
     0.306417596  0.390581718  0.386560702
     0.558835229  0.389717433  0.387604729
     0.941066573  0.627056503  0.389896899
     0.190866668  0.640724506  0.389942903
     0.438988602  0.641780096  0.390501430
     0.685117514  0.628656399  0.393104240
     0.040061626  0.895755800  0.387894377
     0.298616111  0.882552393  0.387787406
     0.562442590  0.885164607  0.385909944
     0.794410292  0.881606121  0.388084200
     0.562648696  0.224419203  0.434932321
     0.816364111  0.212047059  0.433784450
     0.075393645  0.217542500  0.435512957
     0.315578005  0.220831111  0.433855913
     0.693072839  0.468087255  0.436147189
     0.943881064  0.473138597  0.434065835
     0.196171204  0.467249160  0.434197594
     0.445324658  0.467463239  0.432632112
     0.808830861  0.725889044  0.436477705
     0.058160558  0.706903239  0.434090400
     0.317102603  0.725974447  0.433538796
     0.552548480  0.718331389  0.437991823
     0.938091339  0.957133708  0.435454893
     0.183087864  0.956150997  0.433449468
     0.435740202  0.976626241  0.434657636
     0.694402178  0.968510616  0.434673269
     0.562499787  0.041666741  0.480793586
     0.812500349  0.041666741  0.480793586
     0.062499648  0.041666741  0.480793586
     0.312500210  0.041666741  0.480793586
     0.687500068  0.291667190  0.480793586
     0.937499645  0.291667190  0.480793586
     0.187499929  0.291667190  0.480793586
     0.437500492  0.291667190  0.480793586
     0.812500349  0.541666500  0.480793586
     0.062499648  0.541666500  0.480793586
     0.312500210  0.541666500  0.480793586
     0.562499787  0.541666500  0.480793586
     0.937499645  0.791666949  0.480793586
     0.187499929  0.791666949  0.480793586
     0.437500492  0.791666949  0.480793586
     0.687500068  0.791666949  0.480793586
     0.687500068  0.125000224  0.527018864
     0.937499645  0.125000224  0.527018864
     0.187499929  0.125000224  0.527018864
     0.437500492  0.125000224  0.527018864
     0.812500349  0.374999534  0.527018864
     0.062499648  0.374999534  0.527018864
     0.312500210  0.374999534  0.527018864
     0.562499787  0.374999534  0.527018864
     0.937499645  0.624999983  0.527018864
     0.187499929  0.624999983  0.527018864
     0.437500492  0.624999983  0.527018864
     0.687500068  0.624999983  0.527018864
     0.062499648  0.875000432  0.527018864
     0.312500210  0.875000432  0.527018864
     0.562499787  0.875000432  0.527018864
     0.812500349  0.875000432  0.527018864
     0.567502559  0.220374486  0.573215110
     0.826254276  0.215246849  0.574233455
     0.072233999  0.213295091  0.572473683
     0.325330108  0.210184120  0.576837382
     0.689635097  0.467162618  0.574220056
     0.952761404  0.469401332  0.571028794
     0.193037198  0.455437263  0.573739915
     0.440809047  0.457377635  0.574222289
     0.822007885  0.715912757  0.572880128
     0.074589928  0.716099506  0.574429978
     0.324071772  0.714299197  0.574854288
     0.578615558  0.698423224  0.571111423
     0.943174976  0.962970764  0.571709924
     0.208091865  0.964205132  0.572609909
     0.448842279  0.960279979  0.573500961
     0.700025243  0.961986914  0.571790320
     0.571021166  0.039123990  0.617839174
     0.821045396  0.044363220  0.617115613
     0.065270748  0.046355972  0.619237166
     0.314695395  0.050371083  0.620101419
     0.696787691  0.302260661  0.618861986
     0.951322602  0.303549687  0.620898676
     0.197752013  0.304202171  0.621374351
     0.445843376  0.293459528  0.623830885
     0.812952009  0.538300457  0.615822583
     0.062539094  0.556287608  0.616599741
     0.327868475  0.538138759  0.620793715
     0.563698953  0.540452629  0.618739159
     0.940296385  0.811821076  0.616409918
     0.198816076  0.808946957  0.617180376
     0.449689387  0.801469012  0.620988005
     0.693096507  0.774852675  0.621606605
     0.116390148  0.545683889  0.224311517
     0.660982317  0.844466912  0.259251029
     0.858987772  0.291734374  0.204920974
     0.064228380  0.192526058  0.710300896
     0.314082005  0.284516056  0.693341876
     0.181452817  0.407255930  0.314752851
     0.852935729  0.384530584  0.683060163
     0.904175440  0.038581961  0.250565840
     0.925946820  0.885000632  0.798664673
     0.325294606  0.292499591  0.770367629
     0.105357028  0.188208048  0.193801806
     0.133272163  0.731188626  0.784338610
     0.189770061  0.899584162  0.311847664
     0.118737201  0.487853080  0.754777569
     0.410017293  0.951933194  0.248835993
     0.558007843  0.272057369  0.304893439
     0.763165893  0.276829726  0.270136827
     0.472676698  0.846981196  0.825251075
     0.230260666  0.895236546  0.688435507
     0.631607670  0.770867170  0.192896238
     0.561168475  0.395391653  0.737383072
     0.727233304  0.506502963  0.832285696
     0.509796619  0.141515016  0.812519527
     0.156924143  0.570199296  0.693826483
     0.815081121  0.601012939  0.324761443
     0.722234476  0.687507497  0.784001395
     0.224418674  0.932439522  0.187872402
     0.727791469  0.275041943  0.777967254
     0.116651479  0.193590757  0.257266373
     0.414558544  0.663493124  0.683940049
     0.362515115  0.424900328  0.220148138
     0.313772352  0.147319050  0.297858594
     0.551064315  0.183361675  0.204313987
     0.355289546  0.647637648  0.322902963
     0.718920004  0.923736319  0.698811015
     0.589707848  0.584379721  0.292364667
     0.920279378  0.948864356  0.321592737
     0.038838792  0.696461217  0.848408091
     0.631081062  0.217223660  0.691166727
     0.891144367  0.927272031  0.195373988
     0.963237346  0.460998750  0.276491211
     0.528471467  0.749986543  0.743935319
     0.633794965  0.487030927  0.236422232
     0.399369760  0.491662083  0.831019464
     0.110507724  0.321367170  0.813336883
     0.989736360  0.159941712  0.769719998
     0.968472851  0.845557802  0.706977875
     0.317141063  0.969722209  0.743439546
     0.891532913  0.589131581  0.739180808
     0.171008432  0.821261028  0.244823803
     0.070541755  0.552894236  0.203722632
     0.130965543  0.647157110  0.230739374
     0.745976197  0.896797725  0.261926195
     0.655402643  0.774898223  0.275789312
     0.499996195  0.908818007  0.250342966
     0.806057788  0.208975943  0.210864894
     0.154111625  0.199103279  0.702413188
     0.004400231  0.248656764  0.698415736
     0.339595849  0.377028725  0.704880888
     0.297385388  0.338217883  0.675214885
     0.991610058  0.064052751  0.255805628
     0.122508264  0.394894034  0.331714998
     0.124264608  0.914905580  0.326504465
     0.879808497  0.453410350  0.699976752
     0.153204360  0.084605428  0.192228954
     0.853134933  0.130134693  0.257985468
     0.999272495  0.836308015  0.785531146
     0.323484023  0.193291275  0.761430310
     0.399089692  0.346709285  0.760101549
     0.713875813  0.824534835  0.196474292
     0.117876286  0.224706160  0.172413431
     0.440969791  0.194147589  0.802688923
     0.216728625  0.768398435  0.776533531
     0.130542481  0.622349053  0.775354394
     0.231323743  0.495435787  0.317853444
     0.243202985  0.991976127  0.310630563
     0.155438991  0.388176751  0.759324391
     0.023080995  0.470918102  0.753513570
     0.879609293  0.433211813  0.664959971
     0.436628729  0.026486524  0.234274104
     0.567085415  0.247875605  0.326440819
     0.826506732  0.356462383  0.277037455
     0.691969330  0.263009135  0.283699800
     0.433987802  0.745942964  0.821168761
     0.537439575  0.828390526  0.840383263
     0.304353570  0.832631103  0.682238341
     0.205970642  0.971545293  0.673122365
     0.520563477  0.372512579  0.306753929
     0.625524070  0.724708196  0.212050061
     0.582821516  0.498393031  0.736384825
     0.573131541  0.333460329  0.718521354
     0.940974860  0.996124468  0.792751124
     0.698484867  0.590297626  0.844662546
     0.771134038  0.435021232  0.845008917
     0.485720591  0.034908465  0.813712062
     0.136010720  0.530397771  0.712732866
     0.879413048  0.536462570  0.313724010
     0.720013652  0.604506519  0.798459217
     0.779712614  0.532822096  0.342047629
     0.106515762  0.661457101  0.688969245
     0.783842638  0.772232490  0.789943975
     0.306489586  0.921774312  0.176732689
     0.165629934  0.851980158  0.180992319
     0.681230084  0.328828034  0.761830056
     0.203308019  0.163957961  0.266481727
     0.336016101  0.600932091  0.682336602
     0.654853353  0.216070141  0.785609309
     0.445733913  0.662855443  0.663863463
     0.409562675  0.495392515  0.232903358
     0.274359617  0.470299779  0.217272429
     0.268620186  0.239533375  0.306275798
     0.505879605  0.175609299  0.184861584
     0.407215622  0.160253720  0.298583272
     0.523824697  0.282498252  0.210465149
     0.198845661  0.332088177  0.808642669
     0.398448690  0.644540342  0.342743051
     0.309954940  0.742089550  0.321734546
     0.696915891  0.031372753  0.695438863
     0.671569694  0.583525684  0.303808991
     0.910246220  0.850990614  0.330086316
     0.529608505  0.649614459  0.303635470
     0.700717525  0.886594834  0.678560239
     0.912070610  0.000370083  0.341862942
     0.970366272  0.761497818  0.857137944
     0.005778878  0.688331927  0.829168130
     0.135552157  0.239791864  0.237277552
     0.915469892  0.963717762  0.214518878
     0.044854347  0.417760581  0.283629007
     0.918001356  0.001348239  0.181258295
     0.582139096  0.218248504  0.673202760
     0.977821616  0.483852772  0.254816538
     0.593225468  0.745744827  0.759185931
     0.560399273  0.822720861  0.729484197
     0.942719371  0.238309256  0.200955235
     0.600179845  0.515097988  0.256509760
     0.366183618  0.478229794  0.850860159
     0.678030006  0.391022401  0.240453851
     0.488083423  0.459635708  0.832509017
     0.078266319  0.269332423  0.796543120
     0.717103503  0.276836559  0.688109458
     0.019530832  0.156271631  0.748984614
     0.892221250  0.196619740  0.769117030
     0.055160670  0.900439337  0.706164986
     0.901809651  0.917466551  0.700744978
     0.378743308  0.889881167  0.746829563
     0.281912591  0.960044265  0.722753293
     0.916103005  0.692339067  0.731105510
     0.824480180  0.608493162  0.755503363
     0.222948314  0.895556525  0.233784807
     0.183465562  0.827300775  0.265279365

  ion indices of the primitive-cell ions
   primitive index   ion index
                 1           1
                 2           2
                 3           3
                 4           4
                 5           5
                 6           6
                 7           7
                 8           8
                 9           9
                10          10
                11          11
                12          12
                13          13
                14          14
                15          15
                16          16
                17          17
                18          18
                19          19
                20          20
                21          21
                22          22
                23          23
                24          24
                25          25
                26          26
                27          27
                28          28
                29          29
                30          30
                31          31
                32          32
                33          33
                34          34
                35          35
                36          36
                37          37
                38          38
                39          39
                40          40
                41          41
                42          42
                43          43
                44          44
                45          45
                46          46
                47          47
                48          48
                49          49
                50          50
                51          51
                52          52
                53          53
                54          54
                55          55
                56          56
                57          57
                58          58
                59          59
                60          60
                61          61
                62          62
                63          63
                64          64
                65          65
                66          66
                67          67
                68          68
                69          69
                70          70
                71          71
                72          72
                73          73
                74          74
                75          75
                76          76
                77          77
                78          78
                79          79
                80          80
                81          81
                82          82
                83          83
                84          84
                85          85
                86          86
                87          87
                88          88
                89          89
                90          90
                91          91
                92          92
                93          93
                94          94
                95          95
                96          96
                97          97
                98          98
                99          99
               100         100
               101         101
               102         102
               103         103
               104         104
               105         105
               106         106
               107         107
               108         108
               109         109
               110         110
               111         111
               112         112
               113         113
               114         114
               115         115
               116         116
               117         117
               118         118
               119         119
               120         120
               121         121
               122         122
               123         123
               124         124
               125         125
               126         126
               127         127
               128         128
               129         129
               130         130
               131         131
               132         132
               133         133
               134         134
               135         135
               136         136
               137         137
               138         138
               139         139
               140         140
               141         141
               142         142
               143         143
               144         144
               145         145
               146         146
               147         147
               148         148
               149         149
               150         150
               151         151
               152         152
               153         153
               154         154
               155         155
               156         156
               157         157
               158         158
               159         159
               160         160
               161         161
               162         162
               163         163
               164         164
               165         165
               166         166
               167         167
               168         168
               169         169
               170         170
               171         171
               172         172
               173         173
               174         174
               175         175
               176         176
               177         177
               178         178
               179         179
               180         180
               181         181
               182         182
               183         183
               184         184
               185         185
               186         186
               187         187
               188         188
               189         189
               190         190
               191         191
               192         192
               193         193
               194         194
               195         195
               196         196
               197         197
               198         198
               199         199
               200         200
               201         201
               202         202
               203         203
               204         204
               205         205
               206         206
               207         207
               208         208
               209         209
               210         210
               211         211
               212         212
               213         213
               214         214
               215         215
               216         216
               217         217
               218         218
               219         219
               220         220
               221         221
               222         222
               223         223
               224         224
               225         225
               226         226
               227         227
               228         228
               229         229
               230         230
               231         231
               232         232
               233         233
               234         234
               235         235
               236         236
               237         237
               238         238
               239         239
               240         240
               241         241
               242         242
               243         243
               244         244
               245         245
               246         246

----------------------------------------------------------------------------------------

 
 
 KPOINTS: KPOINTS created by Atomic Simulation Env

Automatic generation of k-mesh.
 Grid dimensions read from file:
 generate k-points for:    2    2    1

 Generating k-lattice:

  Cartesian coordinates                     Fractional coordinates (reciprocal lattice)
     0.049307831  0.000000000  0.000000000     0.500000000  0.000000000  0.000000000
     0.000000000  0.056935779  0.000000000     0.000000000  0.500000000  0.000000000
     0.000000000  0.000000000  0.022332131     0.000000000  0.000000000  1.000000000

  Length of vectors
     0.049307831  0.056935779  0.022332131

  Shift w.r.t. Gamma in fractional coordinates (k-lattice)
     0.500000000  0.500000000  0.000000000

 
 Subroutine IBZKPT returns following result:
 ===========================================
 
 Found      2 irreducible k-points:
 
 Following reciprocal coordinates:
            Coordinates               Weight
  0.250000  0.250000  0.000000      2.000000
 -0.250000  0.250000  0.000000      2.000000
 
 Following cartesian coordinates:
            Coordinates               Weight
  0.024654  0.028468  0.000000      2.000000
 -0.024654  0.028468  0.000000      2.000000
 


--------------------------------------------------------------------------------------------------------




 Dimension of arrays:
   k-points           NKPTS =      2   k-points in BZ     NKDIM =      2   number of bands    NBANDS=    874
   number of dos      NEDOS =    301   number of ions     NIONS =    246
   non local maximal  LDIM  =      6   non local SUM 2l+1 LMDIM =     18
   total plane-waves  NPLWV = ******
   max r-space proj   IRMAX =   8828   max aug-charges    IRDMAX=  24799
   dimension x,y,z NGX =    96 NGY =   84 NGZ =  420
   dimension x,y,z NGXF=   192 NGYF=  168 NGZF=  840
   support grid    NGXF=   192 NGYF=  168 NGZF=  840
   ions per type =              96  50 100
   NGX,Y,Z   is equivalent  to a cutoff of  15.74, 15.90, 15.59 a.u.
   NGXF,Y,Z  is equivalent  to a cutoff of  31.48, 31.80, 31.19 a.u.

 SYSTEM =  unknown system                          
 POSCAR =  Cu O  H                                 

 Startparameter for this run:
   NWRITE =      2    write-flag & timer
   PREC   = accura    normal or accurate (medium, high low for compatibility)
   ISTART =      1    job   : 0-new  1-cont  2-samecut
   ICHARG =      1    charge: 1-file 2-atom 10-const
   ISPIN  =      1    spin polarized calculation?
   LNONCOLLINEAR =      F non collinear calculations
   LSORBIT =      F    spin-orbit coupling
   INIWAV =      1    electr: 0-lowe 1-rand  2-diag
   LASPH  =      T    aspherical Exc in radial PAW
 Electronic Relaxation 1
   ENCUT  =  800.0 eV  58.80 Ry    7.67 a.u.  23.39 20.25103.27*2*pi/ulx,y,z
   ENINI  =  800.0     initial cutoff
   ENAUG  = 1000.0 eV  augmentation charge cutoff
   NELM   =    300;   NELMIN=  2; NELMDL=  0     # of ELM steps 
   EDIFF  = 0.1E-06   stopping-criterion for ELM
   LREAL  =      T    real-space projection
   NLSPLINE    = F    spline interpolate recip. space projectors
   LCOMPAT=      F    compatible to vasp.4.4
   GGA_COMPAT  = T    GGA compatible to vasp.4.4-vasp.4.6
   LMAXPAW     = -100 max onsite density
   LMAXMIX     =    2 max onsite mixed and CHGCAR
   VOSKOWN=      0    Vosko Wilk Nusair interpolation
   ROPT   =   -0.00025  -0.00025  -0.00025
 Ionic relaxation
   EDIFFG = 0.1E-05   stopping-criterion for IOM
   NSW    =      0    number of steps for IOM
   NBLOCK =      1;   KBLOCK =      1    inner block; outer block 
   IBRION =     -1    ionic relax: 0-MD 1-quasi-New 2-CG
   NFREE  =      0    steps in history (QN), initial steepest desc. (CG)
   ISIF   =      2    stress and relaxation
   IWAVPR =     10    prediction:  0-non 1-charg 2-wave 3-comb
   ISYM   =      2    0-nonsym 1-usesym 2-fastsym
   LCORR  =      T    Harris-Foulkes like correction to forces

   POTIM  = 0.5000    time-step for ionic-motion
   TEIN   =    0.0    initial temperature
   TEBEG  =    0.0;   TEEND  =   0.0 temperature during run
   SMASS  =  -3.00    Nose mass-parameter (am)
   estimated Nose-frequenzy (Omega)   =  0.10E-29 period in steps = 0.13E+47 mass=  -0.235E-26a.u.
   SCALEE = 1.0000    scale energy and forces
   NPACO  =    256;   APACO  = 10.0  distance and # of slots for P.C.
   PSTRESS=    0.0 pullay stress

  Mass of Ions in am
   POMASS =  63.55 16.00  1.00
  Ionic Valenz
   ZVAL   =  11.00  6.00  1.00
  Atomic Wigner-Seitz radii
   RWIGS  =  -1.00 -1.00 -1.00
  virtual crystal weights 
   VCA    =   1.00  1.00  1.00
   NELECT =    1456.0000    total number of electrons
   NUPDOWN=      -1.0000    fix difference up-down

 DOS related values:
   EMIN   =  10.00;   EMAX   =-10.00  energy-range for DOS
   EFERMI =   0.00;   METHOD = LEGACY      
   ISMEAR =     0;   SIGMA  =   0.10  broadening in eV -4-tet -1-fermi 0-gaus

 Electronic relaxation 2 (details)
   IALGO  =     58    algorithm
   LDIAG  =      T    sub-space diagonalisation (order eigenvalues)
   LSUBROT=      F    optimize rotation matrix (better conditioning)
   TURBO    =      0    0=normal 1=particle mesh
   IRESTART =      0    0=no restart 2=restart with 2 vectors
   NREBOOT  =      0    no. of reboots
   NMIN     =      0    reboot dimension
   EREF     =   0.00    reference energy to select bands
   IMIX   =      4    mixing-type and parameters
     AMIX     =   0.40;   BMIX     =  1.00
     AMIX_MAG =   1.60;   BMIX_MAG =  1.00
     AMIN     =   0.10
     WC   =   100.;   INIMIX=   1;  MIXPRE=   1;  MAXMIX= -45

 Intra band minimization:
   WEIMIN = 0.0000     energy-eigenvalue tresh-hold
   EBREAK =  0.29E-10  absolut break condition
   DEPER  =   0.30     relativ break condition  

   TIME   =   0.40     timestep for ELM

  volume/ion in A,a.u.               =      16.21       109.39
  Fermi-wavevector in a.u.,A,eV,Ry     =   1.170107  2.211182 18.628435  1.369151
  Thomas-Fermi vector in A             =   2.306571
 
 Write flags
   LWAVE        =      T    write WAVECAR
   LDOWNSAMPLE  =      F    k-point downsampling of WAVECAR
   LCHARG       =      T    write CHGCAR
   LVTOT        =      F    write LOCPOT, total local potential
   LVHAR        =      T    write LOCPOT, Hartree potential only
   WRT_POTENTIAL=  hartree ionic  ! write potential to hdf5 file
   LELF         =      F    write electronic localiz. function (ELF)
   LORBIT       =      0    0 simple, 1 ext, 2 COOP (PROOUT), +10 PAW based schemes


 Dipole corrections
   LMONO      =      F    monopole corrections only (constant potential shift)
   LDIPOL     =      T    correct potential (dipole corrections)
   IDIPOL     =      3    1-x, 2-y, 3-z, 4-all directions 
   EPSILON    =  1.0000000 bulk dielectric constant
   LVACPOTAV  =      T  vacuum potentials using an averaging scheme for the charge density
   VACPOTFLAT =  0.1000000 required flatness to determine vacuum potential
 Exchange correlation treatment:
   METAGGA = R2SCAN    functional components
   XC_C    = 1    coefficients multiplying the functional components
   LIBXC   =     F    Libxc                    
   VOSKOWN =     0    Vosko Wilk Nusair interpolation
   LHFCALC =     F    Hartree Fock is set to
   LHFONE  =     F    Hartree Fock one center treatment
   AEXX    =    0.0000 exact exchange contribution

 Parameters of functionals:
   R2SCAN:
     No parameter
 
 Accuracy and mixing parameters for tau-dependent meta-GGA functionals:
   LMAXTAU = 6
   LMIXTAU = T
 
 Van der Waals corrections
   IVDW    =     0    specifies the selected vdW correction

 Linear response parameters
   LEPSILON=     F    determine dielectric tensor
   LRPA    =     F    only Hartree local field effects (RPA)
   LNABLA  =     F    use nabla operator in PAW spheres
   LVEL    =     F    velocity operator in full k-point grid
   CSHIFT  =0.1000    complex shift for real part using Kramers Kronig
   OMEGAMAX=  -1.0    maximum frequency
   DEG_THRESHOLD= 0.2000000E-02 threshold for treating states as degnerate
   RTIME   =   -0.100 relaxation time in fs
  (WPLASMAI=    0.000 imaginary part of plasma frequency in eV, 0.658/RTIME)
   DFIELD  = 0.0000000 0.0000000 0.0000000 field for delta impulse in time
 
  Optional k-point grid parameters
   LKPOINTS_OPT  =     F    use optional k-point grid
   KPOINTS_OPT_MODE=     1    mode for optional k-point grid
 
 Orbital magnetization related:
   ORBITALMAG=     F  switch on orbital magnetization
   LCHIMAG   =     F  perturbation theory with respect to B field
   DQ        =  0.001000  dq finite difference perturbation B field
   LLRAUG    =     F  two centre corrections for induced B field
   LBONE     =     F  B-component reconstruction in AE one-centre
   LVGVCALC  =     T  calculate vGv susceptibility
   LVGVAPPL  =     F  apply vGv susceptibility instead of pGv for G=0

 Random number generation:
   RANDOM_GENERATOR = DEFAULT
   PCG_SEED         = not used


--------------------------------------------------------------------------------------------------------


 Static calculation
 charge density and potential will be updated during run
 non-spin polarized calculation
 Conjugate gradient for all bands (Freysoldt, et al. PRB 79, 241103 (2009))
 preconditioned conjugated gradient                                        
 perform sub-space diagonalisation
    before iterative eigenvector-optimisation
 modified Broyden-mixing scheme, WC =      100.0
 initial mixing is a Kerker type mixing with AMIX =  0.4000 and BMIX =      1.0000
 Hartree-type preconditioning will be used
 using additional bands           146
 real space projection scheme for non local part
 use partial core corrections
 no Harris-corrections to forces 
 use gradient corrections 
 use of overlap-Matrix (Vanderbilt PP)
 Gauss-broadening in eV      SIGMA  =   0.10


--------------------------------------------------------------------------------------------------------


  energy-cutoff  :      800.00
  volume of cell :     3987.57
      direct lattice vectors                 reciprocal lattice vectors
    10.140377178  0.000000000  0.000000000     0.098615661  0.000000000  0.000000000
     0.000000000  8.781824240  0.000000000     0.000000000  0.113871557  0.000000000
     0.000000000  0.000000000 44.778530000     0.000000000  0.000000000  0.022332131

  length of vectors
    10.140377178  8.781824240 44.778530000     0.098615661  0.113871557  0.022332131


 
 old parameters found on file WAVECAR:
  energy-cutoff  :      800.00
  volume of cell :     3987.57
      direct lattice vectors                 reciprocal lattice vectors
    10.140377178  0.000000000  0.000000000     0.098615661  0.000000000  0.000000000
     0.000000000  8.781824240  0.000000000     0.000000000  0.113871557  0.000000000
     0.000000000  0.000000000 44.778530000     0.000000000  0.000000000  0.022332131

  length of vectors

 
 k-points in units of 2pi/SCALE and weight: KPOINTS created by Atomic Simulation Env
   0.02465392  0.02846789  0.00000000       0.500
  -0.02465392  0.02846789  0.00000000       0.500
 
 k-points in reciprocal lattice and weights: KPOINTS created by Atomic Simulation Env
   0.25000000  0.25000000  0.00000000       0.500
  -0.25000000  0.25000000  0.00000000       0.500
 
 position of ions in fractional coordinates (direct lattice) 
   0.69172476  0.13531243  0.38637981
   0.93966229  0.14904648  0.38848997
   0.19029174  0.14168810  0.39268440
   0.42486289  0.13155467  0.38416178
   0.80523829  0.39470045  0.38930487
   0.05548018  0.39339890  0.38843258
   0.30641760  0.39058172  0.38656070
   0.55883523  0.38971743  0.38760473
   0.94106657  0.62705650  0.38989690
   0.19086667  0.64072451  0.38994290
   0.43898860  0.64178010  0.39050143
   0.68511751  0.62865640  0.39310424
   0.04006163  0.89575580  0.38789438
   0.29861611  0.88255239  0.38778741
   0.56244259  0.88516461  0.38590994
   0.79441029  0.88160612  0.38808420
   0.56264870  0.22441920  0.43493232
   0.81636411  0.21204706  0.43378445
   0.07539365  0.21754250  0.43551296
   0.31557801  0.22083111  0.43385591
   0.69307284  0.46808725  0.43614719
   0.94388106  0.47313860  0.43406583
   0.19617120  0.46724916  0.43419759
   0.44532466  0.46746324  0.43263211
   0.80883086  0.72588904  0.43647770
   0.05816056  0.70690324  0.43409040
   0.31710260  0.72597445  0.43353880
   0.55254848  0.71833139  0.43799182
   0.93809134  0.95713371  0.43545489
   0.18308786  0.95615100  0.43344947
   0.43574020  0.97662624  0.43465764
   0.69440218  0.96851062  0.43467327
   0.56249979  0.04166674  0.48079359
   0.81250035  0.04166674  0.48079359
   0.06249965  0.04166674  0.48079359
   0.31250021  0.04166674  0.48079359
   0.68750007  0.29166719  0.48079359
   0.93749964  0.29166719  0.48079359
   0.18749993  0.29166719  0.48079359
   0.43750049  0.29166719  0.48079359
   0.81250035  0.54166650  0.48079359
   0.06249965  0.54166650  0.48079359
   0.31250021  0.54166650  0.48079359
   0.56249979  0.54166650  0.48079359
   0.93749964  0.79166695  0.48079359
   0.18749993  0.79166695  0.48079359
   0.43750049  0.79166695  0.48079359
   0.68750007  0.79166695  0.48079359
   0.68750007  0.12500022  0.52701886
   0.93749964  0.12500022  0.52701886
   0.18749993  0.12500022  0.52701886
   0.43750049  0.12500022  0.52701886
   0.81250035  0.37499953  0.52701886
   0.06249965  0.37499953  0.52701886
   0.31250021  0.37499953  0.52701886
   0.56249979  0.37499953  0.52701886
   0.93749964  0.62499998  0.52701886
   0.18749993  0.62499998  0.52701886
   0.43750049  0.62499998  0.52701886
   0.68750007  0.62499998  0.52701886
   0.06249965  0.87500043  0.52701886
   0.31250021  0.87500043  0.52701886
   0.56249979  0.87500043  0.52701886
   0.81250035  0.87500043  0.52701886
   0.56750256  0.22037449  0.57321511
   0.82625428  0.21524685  0.57423346
   0.07223400  0.21329509  0.57247368
   0.32533011  0.21018412  0.57683738
   0.68963510  0.46716262  0.57422006
   0.95276140  0.46940133  0.57102879
   0.19303720  0.45543726  0.57373992
   0.44080905  0.45737763  0.57422229
   0.82200789  0.71591276  0.57288013
   0.07458993  0.71609951  0.57442998
   0.32407177  0.71429920  0.57485429
   0.57861556  0.69842322  0.57111142
   0.94317498  0.96297076  0.57170992
   0.20809187  0.96420513  0.57260991
   0.44884228  0.96027998  0.57350096
   0.70002524  0.96198691  0.57179032
   0.57102117  0.03912399  0.61783917
   0.82104540  0.04436322  0.61711561
   0.06527075  0.04635597  0.61923717
   0.31469539  0.05037108  0.62010142
   0.69678769  0.30226066  0.61886199
   0.95132260  0.30354969  0.62089868
   0.19775201  0.30420217  0.62137435
   0.44584338  0.29345953  0.62383089
   0.81295201  0.53830046  0.61582258
   0.06253909  0.55628761  0.61659974
   0.32786847  0.53813876  0.62079372
   0.56369895  0.54045263  0.61873916
   0.94029638  0.81182108  0.61640992
   0.19881608  0.80894696  0.61718038
   0.44968939  0.80146901  0.62098800
   0.69309651  0.77485267  0.62160660
   0.11639015  0.54568389  0.22431152
   0.66098232  0.84446691  0.25925103
   0.85898777  0.29173437  0.20492097
   0.06422838  0.19252606  0.71030090
   0.31408201  0.28451606  0.69334188
   0.18145282  0.40725593  0.31475285
   0.85293573  0.38453058  0.68306016
   0.90417544  0.03858196  0.25056584
   0.92594682  0.88500063  0.79866467
   0.32529461  0.29249959  0.77036763
   0.10535703  0.18820805  0.19380181
   0.13327216  0.73118863  0.78433861
   0.18977006  0.89958416  0.31184766
   0.11873720  0.48785308  0.75477757
   0.41001729  0.95193319  0.24883599
   0.55800784  0.27205737  0.30489344
   0.76316589  0.27682973  0.27013683
   0.47267670  0.84698120  0.82525107
   0.23026067  0.89523655  0.68843551
   0.63160767  0.77086717  0.19289624
   0.56116848  0.39539165  0.73738307
   0.72723330  0.50650296  0.83228570
   0.50979662  0.14151502  0.81251953
   0.15692414  0.57019930  0.69382648
   0.81508112  0.60101294  0.32476144
   0.72223448  0.68750750  0.78400140
   0.22441867  0.93243952  0.18787240
   0.72779147  0.27504194  0.77796725
   0.11665148  0.19359076  0.25726637
   0.41455854  0.66349312  0.68394005
   0.36251512  0.42490033  0.22014814
   0.31377235  0.14731905  0.29785859
   0.55106431  0.18336167  0.20431399
   0.35528955  0.64763765  0.32290296
   0.71892000  0.92373632  0.69881102
   0.58970785  0.58437972  0.29236467
   0.92027938  0.94886436  0.32159274
   0.03883879  0.69646122  0.84840809
   0.63108106  0.21722366  0.69116673
   0.89114437  0.92727203  0.19537399
   0.96323735  0.46099875  0.27649121
   0.52847147  0.74998654  0.74393532
   0.63379497  0.48703093  0.23642223
   0.39936976  0.49166208  0.83101946
   0.11050772  0.32136717  0.81333688
   0.98973636  0.15994171  0.76972000
   0.96847285  0.84555780  0.70697788
   0.31714106  0.96972221  0.74343955
   0.89153291  0.58913158  0.73918081
   0.17100843  0.82126103  0.24482380
   0.07054175  0.55289424  0.20372263
   0.13096554  0.64715711  0.23073937
   0.74597620  0.89679773  0.26192620
   0.65540264  0.77489822  0.27578931
   0.49999619  0.90881801  0.25034297
   0.80605779  0.20897594  0.21086489
   0.15411162  0.19910328  0.70241319
   0.00440023  0.24865676  0.69841574
   0.33959585  0.37702873  0.70488089
   0.29738539  0.33821788  0.67521489
   0.99161006  0.06405275  0.25580563
   0.12250826  0.39489403  0.33171500
   0.12426461  0.91490558  0.32650447
   0.87980850  0.45341035  0.69997675
   0.15320436  0.08460543  0.19222895
   0.85313493  0.13013469  0.25798547
   0.99927249  0.83630802  0.78553115
   0.32348402  0.19329127  0.76143031
   0.39908969  0.34670928  0.76010155
   0.71387581  0.82453483  0.19647429
   0.11787629  0.22470616  0.17241343
   0.44096979  0.19414759  0.80268892
   0.21672862  0.76839843  0.77653353
   0.13054248  0.62234905  0.77535439
   0.23132374  0.49543579  0.31785344
   0.24320299  0.99197613  0.31063056
   0.15543899  0.38817675  0.75932439
   0.02308100  0.47091810  0.75351357
   0.87960929  0.43321181  0.66495997
   0.43662873  0.02648652  0.23427410
   0.56708541  0.24787561  0.32644082
   0.82650673  0.35646238  0.27703746
   0.69196933  0.26300914  0.28369980
   0.43398780  0.74594296  0.82116876
   0.53743957  0.82839053  0.84038326
   0.30435357  0.83263110  0.68223834
   0.20597064  0.97154529  0.67312236
   0.52056348  0.37251258  0.30675393
   0.62552407  0.72470820  0.21205006
   0.58282152  0.49839303  0.73638483
   0.57313154  0.33346033  0.71852135
   0.94097486  0.99612447  0.79275112
   0.69848487  0.59029763  0.84466255
   0.77113404  0.43502123  0.84500892
   0.48572059  0.03490846  0.81371206
   0.13601072  0.53039777  0.71273287
   0.87941305  0.53646257  0.31372401
   0.72001365  0.60450652  0.79845922
   0.77971261  0.53282210  0.34204763
   0.10651576  0.66145710  0.68896924
   0.78384264  0.77223249  0.78994398
   0.30648959  0.92177431  0.17673269
   0.16562993  0.85198016  0.18099232
   0.68123008  0.32882803  0.76183006
   0.20330802  0.16395796  0.26648173
   0.33601610  0.60093209  0.68233660
   0.65485335  0.21607014  0.78560931
   0.44573391  0.66285544  0.66386346
   0.40956267  0.49539252  0.23290336
   0.27435962  0.47029978  0.21727243
   0.26862019  0.23953338  0.30627580
   0.50587960  0.17560930  0.18486158
   0.40721562  0.16025372  0.29858327
   0.52382470  0.28249825  0.21046515
   0.19884566  0.33208818  0.80864267
   0.39844869  0.64454034  0.34274305
   0.30995494  0.74208955  0.32173455
   0.69691589  0.03137275  0.69543886
   0.67156969  0.58352568  0.30380899
   0.91024622  0.85099061  0.33008632
   0.52960851  0.64961446  0.30363547
   0.70071753  0.88659483  0.67856024
   0.91207061  0.00037008  0.34186294
   0.97036627  0.76149782  0.85713794
   0.00577888  0.68833193  0.82916813
   0.13555216  0.23979186  0.23727755
   0.91546989  0.96371776  0.21451888
   0.04485435  0.41776058  0.28362901
   0.91800136  0.00134824  0.18125829
   0.58213910  0.21824850  0.67320276
   0.97782162  0.48385277  0.25481654
   0.59322547  0.74574483  0.75918593
   0.56039927  0.82272086  0.72948420
   0.94271937  0.23830926  0.20095523
   0.60017984  0.51509799  0.25650976
   0.36618362  0.47822979  0.85086016
   0.67803001  0.39102240  0.24045385
   0.48808342  0.45963571  0.83250902
   0.07826632  0.26933242  0.79654312
   0.71710350  0.27683656  0.68810946
   0.01953083  0.15627163  0.74898461
   0.89222125  0.19661974  0.76911703
   0.05516067  0.90043934  0.70616499
   0.90180965  0.91746655  0.70074498
   0.37874331  0.88988117  0.74682956
   0.28191259  0.96004427  0.72275329
   0.91610300  0.69233907  0.73110551
   0.82448018  0.60849316  0.75550336
   0.22294831  0.89555653  0.23378481
   0.18346556  0.82730078  0.26527936
 
 position of ions in cartesian coordinates  (Angst):
   7.01435000  1.18829000 17.30152000
   9.52853000  1.30890000 17.39601000
   1.92963000  1.24428000 17.58383000
   4.30827000  1.15529000 17.20220000
   8.16542000  3.46619000 17.43250000
   0.56259000  3.45476000 17.39344000
   3.10719000  3.43002000 17.30962000
   5.66680000  3.42243000 17.35637000
   9.54277000  5.50670000 17.45901000
   1.93546000  5.62673000 17.46107000
   4.45151000  5.63600000 17.48608000
   6.94735000  5.52075000 17.60263000
[...]
      3.16887      0.36591     21.52923        -0.117362      0.036883     -0.104901
      6.97151      2.56137     21.52923         0.089350     -0.044558      0.024070
      9.50660      2.56137     21.52923        -0.004322      0.035657     -0.158258
      1.90132      2.56137     21.52923         0.170448      0.110315      0.159290
      4.43642      2.56137     21.52923        -0.058133      0.072240     -0.037738
      8.23906      4.75682     21.52923         0.164077      0.037515      0.171066
      0.63377      4.75682     21.52923         0.088698     -0.029031      0.001788
      3.16887      4.75682     21.52923         0.114639      0.065771     -0.139543
      5.70396      4.75682     21.52923        -0.047353     -0.128256      0.183850
      9.50660      6.95228     21.52923         0.153145     -0.032465      0.243546
      1.90132      6.95228     21.52923        -0.025684     -0.051325     -0.146862
      4.43642      6.95228     21.52923        -0.327231      0.235971      0.462104
      6.97151      6.95228     21.52923        -0.053604      0.167080      0.413762
      6.97151      1.09773     23.59913         0.053081      0.163193      0.036047
      9.50660      1.09773     23.59913         0.022534      0.133797     -0.096848
      1.90132      1.09773     23.59913         0.153062      0.086416      0.022252
      4.43642      1.09773     23.59913        -0.026683      0.072307      0.213915
      8.23906      3.29318     23.59913        -0.026087      0.037937      0.130507
      0.63377      3.29318     23.59913         0.152281     -0.004542     -0.280567
      3.16887      3.29318     23.59913         0.076976     -0.064497      0.206678
      5.70396      3.29318     23.59913         0.024362      0.128405      0.025975
      9.50660      5.48864     23.59913         0.127541      0.246191     -0.238049
      1.90132      5.48864     23.59913         0.077445      0.041653      0.201849
      4.43642      5.48864     23.59913        -0.066559     -0.003245      0.088153
      6.97151      5.48864     23.59913         0.311133     -0.098140     -0.412435
      0.63377      7.68410     23.59913         0.147417     -0.009752      0.005329
      3.16887      7.68410     23.59913         0.149634     -0.075462     -0.070823
      5.70396      7.68410     23.59913         0.045237      0.043073     -0.028515
      8.23906      7.68410     23.59913         0.105562      0.013428     -0.310680
      5.75469      1.93529     25.66773         0.319218     -0.538377      0.253896
      8.37853      1.89026     25.71333        -0.305501      0.244788     -0.165561
      0.73248      1.87312     25.63453        -0.004347     -0.215421      0.441942
      3.29897      1.84580     25.82993        -0.246518      0.202500     -0.607737
      6.99316      4.10254     25.71273         0.386575     -0.795638     -0.842549
      9.66136      4.12220     25.56983        -0.654168     -0.409442      0.527234
      1.95747      3.99957     25.69123         0.369871      0.360938      0.027084
      4.46997      4.01661     25.71283        -0.108762      0.177420     -0.214349
      8.33547      6.28702     25.65273        -0.030352     -0.222408     -0.027421
      0.75637      6.28866     25.72213        -0.011074      0.201002     -0.725434
      3.28621      6.27285     25.74113         0.108016     -0.435970     -0.222065
      5.86738      6.13343     25.57353        -0.850465      1.042265      0.792497
      9.56415      8.45664     25.60033         0.477114      0.191719      0.049126
      2.11013      8.46748     25.64063        -0.817848      0.151606      0.035073
      4.55143      8.43301     25.68053         0.153275     -0.084952     -0.027125
      7.09852      8.44800     25.60393        -0.537052     -0.030319      0.475165
      5.79037      0.34358     27.66593         0.224579      0.325633      0.091876
      8.32571      0.38959     27.63353        -0.416811      0.323325      0.340149
      0.66187      0.40709     27.72853         0.307116      0.440580     -0.268403
      3.19113      0.44235     27.76723         0.360028     -0.067291      0.147262
      7.06569      2.65440     27.71173        -0.184024     -0.700696     -0.005793
      9.64677      2.66572     27.80293        -0.101376     -0.282888     -0.565608
      2.00528      2.67145     27.82423        -0.300298     -0.289210     -0.245182
      4.52102      2.57711     27.93423         0.139698     -0.200638     -0.493074
      8.24364      4.72726     27.57563         0.736398      0.403516      0.473366
      0.63417      4.88522     27.61043         0.299304     -0.210124      0.650415
      3.32471      4.72584     27.79823        -0.640896      0.518484     -0.333716
      5.71612      4.74616     27.70623         0.210046      0.140198      0.179334
      9.53496      7.12927     27.60193         0.150864     -0.867915      0.566134
      2.01607      7.10403     27.63643        -0.157400     -0.538845      0.539025
      4.56002      7.03836     27.80693        -0.172721     -0.284179     -0.519432
      7.02826      6.80462     27.83463         0.013640      0.776867     -0.581123
      1.18024      4.79210     10.04434        -1.874750     -1.823829     -3.290252
      6.70261      7.41596     11.60888         0.805215      0.510774      0.224358
      8.71046      2.56196      9.17606         1.224185      0.415468     -0.535241
      0.65130      1.69073     31.80623         0.764867     -1.207467      0.524621
      3.18491      2.49857     31.04683         0.816414      1.297974      0.849434
      1.84000      3.57645     14.09417        -1.470210     -2.098429      0.040524
      8.64909      3.37688     30.58643         0.345164      0.175583      1.872283
      9.16868      0.33882     11.21997        -2.501285      0.027526      0.149640
      9.38945      7.77192     35.76303         0.955183      1.141416     -1.842490
      3.29861      2.56868     34.49593         0.791762      0.957939     -0.482440
      1.06836      1.65281      8.67816         1.092012     -0.442419     -2.715939
      1.35143      6.42117     35.12153         0.707408     -1.233022     -0.814501
      1.92434      7.89999     13.96408         1.257076     -1.265243     -0.197073
      1.20404      4.28424     33.79783        -0.377959     -1.279113     -0.776273
      4.15773      8.35971     11.14251         1.272465     -0.068040     -0.256616
      5.65841      2.38916     13.65268        -0.384799     -0.512625      2.234113
      7.73879      2.43107     12.09633         1.230537      0.180634     -0.579279
      4.79312      7.43804     36.95353        -0.439602     -1.132096     -0.233996
      2.33493      7.86181     30.82713        -0.918952      1.110239     -0.757177
      6.40474      6.76962      8.63761         0.354002      0.517310     -0.255121
      5.69046      3.47226     33.01893        -0.839314     -2.714081     -0.328052
      7.37442      4.44802     37.26853        -0.659304      0.444873      0.088766
      5.16953      1.24276     36.38343         1.215126     -0.004225      0.278788
      1.59127      5.00739     31.06853         0.507894      0.505745     -2.704395
      8.26523      5.27799     14.54234        -0.281017     -1.912146      1.682238
      7.32373      6.03757     35.10643         0.316690      0.497121     -0.540355
      2.27569      8.18852      8.41265         0.336743     -0.774591     -0.661592
      7.38008      2.41537     34.83623         0.155238      0.236853     -0.741138
      1.18289      1.70008     11.52001         1.720873      0.390037     -0.458129
      4.20378      5.82668     30.62583        -0.188483      0.140515      0.425093
      3.67604      3.73140      9.85791        -0.341549      0.223596      0.015419
      3.18177      1.29373     13.33767        -1.603621      0.514981      0.781130
      5.58800      1.61025      9.14888        -0.506513     -0.875985     -1.251806
      3.60277      5.68744     14.45912         1.226050     -1.417675      0.754748
      7.29012      8.11209     31.29173        -0.370040      0.284011     -1.302743
      5.97986      5.13192     13.09166        -0.562986      0.374268      0.866820
      9.33198      8.33276     14.40045        -0.060702      1.674189      2.274492
      0.39384      6.11620     37.99047        -0.406058      0.635463      2.500761
      6.39940      1.90762     30.94943         1.971760      0.546952      0.977052
      9.03654      8.14314      8.74856        -0.437500     -1.485115     -1.287688
      9.76759      4.04841     12.38087        -0.246982      0.769949     -0.623486
      5.35890      6.58625     33.31233        -1.195425      0.060526     -1.146257
      6.42692      4.27702     10.58664        -0.734895      0.265338      0.728102
      4.04976      4.31769     37.21183        -0.642081      0.602913     -0.186394
      1.12059      2.82219     36.42003        -1.340278      0.662967      1.853589
     10.03630      1.40458     34.46693        -2.148601      0.733770     -0.297161
      9.82068      7.42554     31.65743         1.916882      0.469310     -0.316081
      3.21593      8.51593     33.29013        -1.172092      1.200393     -0.664173
      9.04048      5.17365     33.09943        -0.884913      0.813868     -0.156544
      1.73409      7.21217     10.96285        -1.056504     -0.481709     -2.552638
      0.71532      4.85542      9.12240         1.076895     -0.109873      2.713767
      1.32804      5.68322     10.33217         0.328742      1.977045      0.521358
      7.56448      7.87552     11.72867        -0.405307     -0.096066     -0.356717
      6.64603      6.80502     12.34944        -0.006390     -0.271013     -0.170060
      5.07015      7.98108     11.20999        -0.525350     -0.262093      0.493013
      8.17373      1.83519      9.44222        -1.159840     -0.757022      0.349655
      1.56275      1.74849     31.45303        -0.425861      0.585614      0.170516
      0.04462      2.18366     31.27403        -0.386121      0.648171     -0.764429
      3.44363      3.31100     31.56353        -0.185705     -1.386827      0.198579
      3.01560      2.97017     30.23513        -0.437303     -0.072903     -1.076307
     10.05530      0.56250     11.45460         1.615319      0.371647      0.344259
      1.24228      3.46789     14.85371         0.335368      0.177671     -0.217417
      1.26009      8.03454     14.62039        -1.012604      0.342671      0.338236
      8.92159      3.98177     31.34393        -0.536305     -0.375067     -0.617570
      1.55355      0.74299      8.60773        -0.735365      1.356106      0.316310
      8.65111      1.14282     11.55221         0.387582     -0.840033     -0.404081
     10.13300      7.34431     35.17493        -0.936550      0.370105      1.486803
      3.28025      1.69745     34.09573         0.072795     -0.789340     -0.323112
      4.04692      3.04474     34.03623        -0.744299     -0.632080      0.544987
      7.23897      7.24092      8.79783         0.182664      0.372894     -0.615372
      1.19531      1.97333      7.72042        -0.320235     -0.396675      2.215301
      4.47160      1.70497     35.94323        -0.948702      0.405440     -0.412633
      2.19771      6.74794     34.77203        -0.491302      0.257295      0.213554
      1.32375      5.46536     34.71923        -0.037435      1.486954      0.637546
      2.34571      4.35083     14.23301         1.208230      1.877322      0.378243
      2.46617      8.71136     13.90958         0.112414      0.466866     -0.345823
      1.57621      3.40890     34.00143         0.504929      0.260622      0.227318
      0.23405      4.13552     33.74123         0.308507      0.611563     -0.052362
      8.91957      3.80439     29.77593         0.179757      0.466395     -0.504498
      4.42758      0.23260     10.49045        -0.364310      0.786587     -0.386328
      5.75046      2.17680     14.61754         0.162512     -0.204019     -1.010887
      8.38109      3.13039     12.40533        -0.339996     -0.702717     -0.392453
      7.01683      2.30970     12.70366        -0.465441      0.063298      0.620063
      4.40080      6.55074     36.77073         0.248440      0.750887      0.240217
      5.44984      7.27478     37.63113         0.047387      0.042735      0.100296
      3.08626      7.31202     30.54963         0.290465     -0.107318     -0.103922
      2.08862      8.53194     30.14143         0.671402     -0.866959      0.552107
      5.27871      3.27134     13.73599         0.071279      0.658741     -0.730857
      6.34305      6.36426      9.49529        -0.479888     -0.856674      0.721055
      5.91003      4.37680     32.97423         0.285288      1.973791     -0.758659
      5.81177      2.92839     32.17433         0.069492      1.197580      0.997433
      9.54184      8.74779     35.49823        -0.373588     -1.748339      0.476196
      7.08290      5.18389     37.82275         0.290069     -0.313094      0.111502
      7.81959      3.82028     37.83826         0.234048     -0.135520      0.050283
      4.92539      0.30656     36.43683        -0.174975     -0.044054     -0.045109
      1.37920      4.65786     31.91513        -0.642725     -0.182380      1.985634
      8.91758      4.71112     14.04810        -0.488828      0.564762     -0.032102
      7.30121      5.30867     35.75383         0.424137      0.357729      0.113273
      7.90658      4.67915     15.31639         1.055729      1.407905     -1.820716
      1.08011      5.80880     30.85103         0.106187     -0.381550      0.790933
      7.94846      6.78161     35.37253        -0.241599     -0.798101      0.194126
      3.10792      8.09486      7.91383        -0.400223     -0.057634      0.392300
      1.67955      7.48194      8.10457         0.298831      0.367846      0.234001
      6.90793      2.88771     34.11363         0.339685     -0.111489      0.231169
      2.06162      1.43985     11.93266        -1.045077      0.443312     -0.860149
      3.40733      5.27728     30.55403        -0.619372      0.074976      0.553059
      6.64046      1.89749     35.17843        -0.096174     -0.497465      0.755885
      4.51991      5.82108     29.72683         0.739504     -0.054519     -0.817280
      4.15312      4.35045     10.42907        -0.020369     -0.192130     -0.405685
      2.78211      4.13009      9.72914         0.502237     -0.252776      0.366812
      2.72391      2.10354     13.71458         0.856073     -0.678245     -0.456091
      5.12981      1.54217      8.27783         0.717736     -0.033505      0.997861
      4.12932      1.40732     13.37012         0.647890      0.384094     -0.214333
      5.31178      2.48085      9.42432        -0.305185      0.858948      0.400117
      2.01637      2.91634     36.20983         2.401166      0.469598     -0.203002
      4.04042      5.66024     15.34753        -0.534484      0.121224     -0.765593
      3.14306      6.51690     14.40680        -1.010496      1.559267     -0.211074
      7.06699      0.27551     31.14073        -0.203612     -0.002870      0.586894
      6.80997      5.12442     13.60412         0.291704      0.079170     -0.057058
      9.23024      7.47325     14.78078        -0.311760     -1.885979     -0.413575
      5.37043      5.70480     13.59635        -0.126116     -0.387383     -0.336216
      7.10554      7.78592     30.38493         0.166202     -0.252574      0.679728
      9.24874      0.00325     15.30812         0.052124      0.104377     -1.740327
      9.83988      6.68734     38.38138         0.815216     -0.340984     -0.098363
      0.05860      6.04481     37.12893        -0.253776     -0.245872     -2.266329
      1.37455      2.10581     10.62494        -0.110430     -0.678969      1.312973
      9.28321      8.46320      9.60584         0.168283      0.705540      1.482429
      0.45484      3.66870     12.70049         0.227523     -0.212145     -0.327858
      9.30888      0.01184      8.11648         0.109767      0.581600     -0.328968
      5.90311      1.91662     30.14503        -0.517382      0.190393     -0.977559
      9.91548      4.24911     11.41031         0.054719     -0.227764      1.177460
      6.01553      6.54900     33.99523         1.020175     -0.024174      1.163848
      5.68266      7.22499     32.66523         0.267147     -0.172484      0.004881
      9.55953      2.09279      8.99848        -0.250297      0.542591      0.199601
      6.08605      4.52350     11.48613         0.605173     -0.150035     -1.104808
      3.71324      4.19973     38.10027        -0.347587     -0.002173      0.160836
      6.87548      3.43389     10.76717         0.211378      0.168967     -0.065440
      4.94935      4.03644     37.27853         1.092452     -0.527580     -0.126317
      0.79365      2.36523     35.66803        -1.042406     -1.084078     -1.196962
      7.27170      2.43113     30.81253        -1.357166     -0.532104     -0.199232
      0.19805      1.37235     33.53843        -0.172790     -0.075726      0.199971
      9.04746      1.72668     34.43993         1.786809     -0.472474      0.158742
      0.55935      7.90750     31.62103        -1.487592     -0.838101      0.275264
      9.14469      8.05703     31.37833        -0.340870     -0.115022      0.231829
      3.84060      7.81478     33.44193         0.730279     -0.748480     -0.074176
      2.85870      8.43094     32.36383         0.671093     -0.213549      1.254764
      9.28963      6.08000     32.73783        -0.276254     -1.056086      0.515026
      8.36054      5.34368     33.83033         0.669809      0.100048     -0.794332
      2.26078      7.86462     10.46854         0.153468     -0.486066      0.893164
      1.86041      7.26521     11.87882         0.569980      0.679200      1.918197
 -----------------------------------------------------------------------------------
    total drift:                               -0.007470     -0.020016     -0.014402


--------------------------------------------------------------------------------------------------------



  FREE ENERGIE OF THE ION-ELECTRON SYSTEM (eV)
  ---------------------------------------------------
  free  energy   TOTEN  =     -1805.52475163 eV

  energy  without entropy=    -1805.26225174  energy(sigma->0) =    -1805.39350169
 


--------------------------------------------------------------------------------------------------------


    POTLOK:  cpu time     12.2524: real time     12.2738


--------------------------------------------------------------------------------------------------------


 writing wavefunctions
     LOOP+:  cpu time   1159.1017: real time   1161.4923
 vacuum level on the upper side and lower side of the slab         5.473         5.098
    4ORBIT:  cpu time      0.0000: real time      0.0000

 total amount of memory used by VASP MPI-rank0 10618477. kBytes
=======================================================================

   base      :      30000. kBytes
   nonlr-proj:     190995. kBytes
   fftplans  :     468582. kBytes
   grid      :    1221211. kBytes
   one-center:       3825. kBytes
   wavefun   :    8703864. kBytes
 
  
  
 General timing and accounting informations for this job:
 ========================================================
  
                  Total CPU time used (sec):     1273.109
                            User time (sec):     1230.087
                          System time (sec):       43.022
                         Elapsed time (sec):     1276.036
  
                   Maximum memory used (kb):    11818668.
                   Average memory used (kb):          N/A
  
                          Minor page faults:     10017875
                          Major page faults:           51
                 Voluntary context switches:        27626
