246
Lattice="10.140377178 0.0 0.0 0.0 8.78182424 0.0 0.0 0.0 30.131127158" Properties=species:S:1:pos:R:3:initial_charges:R:1:forces:R:3 NELECT0=1456.0 NELECT=1459.0 U_vs_SHE=-0.35460459199333005 stress="0.0053615312372432295 0.0006816040040920812 -0.0006146763017352351 0.0006816040040920812 0.0035934864641360273 0.0005937547631452743 -0.0006146763017352351 0.0005937547631452743 -0.00416200056437623" free_energy=-1803.44737911 energy=-1813.71982920402 pbc="T T T"
Cu       7.01435000       1.18829000       9.80289000      -0.06595900      -0.45493100       0.23175600       0.33932200
Cu       9.52853000       1.30890000       9.89738000      -0.08036500      -0.14754400      -0.22482500       0.20635900
Cu       1.92963000       1.24428000      10.08520000      -0.08499600      -0.49626800      -0.26425300      -1.16706200
Cu       4.30827000       1.15529000       9.70357000      -0.06268700       0.70035500       0.16876400       0.56109900
Cu       8.16542000       3.46619000       9.93387000      -0.10860600       0.20243000      -0.64799800      -0.02118700
Cu       0.56259000       3.45476000       9.89481000      -0.08166000       0.53070600      -0.45784600       0.12875700
Cu       3.10719000       3.43002000       9.81099000      -0.03801300       0.28428000      -0.08159700       0.22391200
Cu       5.66680000       3.42243000       9.85774000      -0.08607600       0.04874200      -0.45091400      -0.05298500
Cu       9.54277000       5.50670000       9.96038000      -0.02194300      -0.54237700       0.93338400      -0.41580500
Cu       1.93546000       5.62673000       9.96244000      -0.04756100      -0.42945100      -0.19768800      -0.23327900
Cu       4.45151000       5.63600000       9.98745000      -0.11112400       0.05908900      -0.05897400      -0.24291900
Cu       6.94735000       5.52075000      10.10400000      -0.08090900      -0.24027600       0.62469300      -0.43748600
Cu       0.40624000       7.86637000       9.87071000      -0.06152400       0.60769500      -0.35826100       0.20692500
Cu       3.02808000       7.75042000       9.86592000      -0.03185800       0.46700500       0.45830500      -0.04000000
Cu       5.70338000       7.77336000       9.78185000      -0.05626700      -0.61929700       0.14074500       0.57306300
Cu       8.05562000       7.74211000       9.87921000      -0.04710900       0.85530100      -0.00085700       0.18531600
Cu       5.70547000       1.97081000      11.97700000       0.00764000       0.25152200      -0.50772500      -0.48203300
Cu       8.27824000       1.86216000      11.92560000       0.00724800       0.01105500       0.27051600       0.16318500
Cu       0.76452000       1.91042000      12.00300000       0.00386400      -1.06040000       0.00151400       0.08244100
Cu       3.20008000       1.93930000      11.92880000       0.00281100       0.45671900      -0.02201100       0.29575600
Cu       7.02802000       4.11066000      12.03140000      -0.00020600      -0.12894000      -0.25432900      -0.05244700
Cu       9.57131000       4.15502000      11.93820000       0.01371200      -0.50610800      -0.83878500       0.47025100
Cu       1.98925000       4.10330000      11.94410000       0.02196200      -0.17438300       0.09099800       0.02638700
Cu       4.51576000       4.10518000      11.87400000       0.00698800      -0.46262100      -0.01508500       0.50154200
Cu       8.20185000       6.37463000      12.04620000       0.00652000       0.11352900      -0.67616900      -0.49787300
Cu       0.58977000       6.20790000      11.93930000       0.01271500       0.50842200       0.65736700       0.20712200
Cu       3.21554000       6.37538000      11.91460000      -0.00265100      -0.47899200      -0.38057900       0.54275700
Cu       5.60305000       6.30826000      12.11400000       0.00130200       0.87994300       0.21400900      -0.94187100
Cu       9.51260000       8.40538000      12.00040000       0.00833900       0.06810800       0.63782800      -0.29359600
Cu       1.85658000       8.39675000      11.91060000       0.00327100       0.00117200       0.27359700       0.31815700
Cu       4.41857000       8.57656000      11.96470000       0.01735900       0.21840700      -0.22030600      -0.49507300
Cu       7.04150000       8.50529000      11.96540000       0.01186500      -0.86054400       0.15903700      -0.18239100
Cu       5.70396000       0.36591000      14.03060000       0.02153500       0.03512400       0.03554200      -0.06349600
Cu       8.23906000       0.36591000      14.03060000      -0.03360000       0.02775600       0.06309500       0.08029500
Cu       0.63377000       0.36591000      14.03060000      -0.00806200       0.04538100       0.00938000      -0.01388800
Cu       3.16887000       0.36591000      14.03060000      -0.00240400      -0.12185600       0.03808400      -0.08954700
Cu       6.97151000       2.56137000      14.03060000      -0.00796200       0.09437900      -0.03245500       0.04139300
Cu       9.50660000       2.56137000      14.03060000       0.01269100      -0.00336100       0.04395000      -0.13807300
Cu       1.90132000       2.56137000      14.03060000      -0.04276500       0.16586500       0.11554100       0.17489200
Cu       4.43642000       2.56137000      14.03060000      -0.00708600      -0.05931500       0.08619400      -0.02245000
Cu       8.23906000       4.75682000      14.03060000      -0.01269200       0.17474000       0.04871000       0.19047600
Cu       0.63377000       4.75682000      14.03060000      -0.01137400       0.08409500      -0.02488700       0.01574500
Cu       3.16887000       4.75682000      14.03060000      -0.00568100       0.11545500       0.07445700      -0.12215600
Cu       5.70396000       4.75682000      14.03060000      -0.00657000      -0.05252400      -0.12121000       0.20564300
Cu       9.50660000       6.95228000      14.03060000      -0.00957100       0.14881000      -0.02763800       0.25714900
Cu       1.90132000       6.95228000      14.03060000       0.01281900      -0.02535900      -0.04318300      -0.13660500
Cu       4.43642000       6.95228000      14.03060000      -0.04037100      -0.32553800       0.24225500       0.47528500
Cu       6.97151000       6.95228000      14.03060000      -0.01316400      -0.05056500       0.17100300       0.43050000
Cu       6.97151000       1.09773000      16.10050000      -0.00789600       0.05644600       0.15936000       0.01772800
Cu       9.50660000       1.09773000      16.10050000      -0.01022800       0.02427700       0.12355900      -0.11508600
Cu       1.90132000       1.09773000      16.10050000      -0.03006800       0.14966600       0.08003000       0.00115800
Cu       4.43642000       1.09773000      16.10050000       0.02403500      -0.02716700       0.06348100       0.19143000
Cu       8.23906000       3.29318000      16.10050000       0.01381700      -0.02455800       0.03430200       0.12385600
Cu       0.63377000       3.29318000      16.10050000      -0.03600600       0.15785400      -0.01206800      -0.29718400
Cu       3.16887000       3.29318000      16.10050000       0.01564700       0.07309200      -0.07014100       0.18944100
Cu       5.70396000       3.29318000      16.10050000      -0.03599900       0.02471900       0.12086600       0.01350800
Cu       9.50660000       5.48864000      16.10050000      -0.03540400       0.12290500       0.24507000      -0.25216900
Cu       1.90132000       5.48864000      16.10050000       0.01818700       0.07919700       0.03706500       0.18386400
Cu       4.43642000       5.48864000      16.10050000      -0.01031800      -0.06594300      -0.00819700       0.07110800
Cu       6.97151000       5.48864000      16.10050000      -0.00996100       0.31860100      -0.10471900      -0.43288900
Cu       0.63377000       7.68410000      16.10050000       0.00847400       0.15412600      -0.01498500      -0.00887700
Cu       3.16887000       7.68410000      16.10050000      -0.01339300       0.14513700      -0.08267700      -0.08636300
Cu       5.70396000       7.68410000      16.10050000      -0.01370100       0.04712100       0.03330200      -0.04997300
Cu       8.23906000       7.68410000      16.10050000      -0.03941400       0.10894100       0.00230900      -0.33413200
Cu       5.75469000       1.93529000      18.16910000       0.01158500       0.31388200      -0.53619900       0.24954300
Cu       8.37853000       1.89026000      18.21470000       0.00728200      -0.30370600       0.24998600      -0.17186900
Cu       0.73248000       1.87312000      18.13590000       0.01142900      -0.00353700      -0.20819400       0.44044700
Cu       3.29897000       1.84580000      18.33130000       0.01574300      -0.25069100       0.20653000      -0.63554400
Cu       6.99316000       4.10254000      18.21410000       0.00085600       0.38755000      -0.78346500      -0.85136100
Cu       9.66136000       4.12220000      18.07120000       0.00540700      -0.65601300      -0.39410300       0.51526400
Cu       1.95747000       3.99957000      18.19260000       0.01200900       0.36639600       0.37838400       0.01195400
Cu       4.46997000       4.01661000      18.21420000      -0.00043800      -0.10796700       0.18815100      -0.23400400
Cu       8.33547000       6.28702000      18.15410000       0.00914500      -0.03487600      -0.22034800      -0.03057900
Cu       0.75637000       6.28866000      18.22350000       0.00005700      -0.01160200       0.20473100      -0.74076400
Cu       3.28621000       6.27285000      18.24250000       0.01443800       0.10671200      -0.43598800      -0.23722300
Cu       5.86738000       6.13343000      18.07490000       0.00749000      -0.85644800       1.05298500       0.79881700
Cu       9.56415000       8.45664000      18.10170000      -0.00082900       0.47854000       0.20751800       0.04364200
Cu       2.11013000       8.46748000      18.14200000      -0.00660500      -0.82082400       0.16832700       0.01827400
Cu       4.55143000       8.43301000      18.18190000       0.00800900       0.15285700      -0.07230200      -0.04465600
Cu       7.09852000       8.44800000      18.10530000       0.01754600      -0.54386000      -0.02050000       0.46961300
Cu       5.79037000       0.34358000      20.16730000      -0.09643500       0.22839300       0.33664400       0.12996900
Cu       8.32571000       0.38959000      20.13490000      -0.08008300      -0.42771300       0.32694200       0.35126000
Cu       0.66187000       0.40709000      20.22990000      -0.07104800       0.32628400       0.44610000      -0.25833800
Cu       3.19113000       0.44235000      20.26860000      -0.06102000       0.35323800      -0.06067700       0.16769800
Cu       7.06569000       2.65440000      20.21310000      -0.06499900      -0.19962400      -0.71044100      -0.01562200
Cu       9.64677000       2.66572000      20.30430000      -0.04997000      -0.09627000      -0.27112900      -0.59474300
Cu       2.00528000       2.67145000      20.32560000      -0.06641700      -0.29096000      -0.28856100      -0.23413700
Cu       4.52102000       2.57711000      20.43560000      -0.06270400       0.15249700      -0.20124200      -0.48856400
Cu       8.24364000       4.72726000      20.07700000      -0.09725300       0.74663800       0.40536600       0.49822400
Cu       0.63417000       4.88522000      20.11180000      -0.04921000       0.29322700      -0.20856000       0.64419100
Cu       3.32471000       4.72584000      20.29960000      -0.05102400      -0.63968200       0.50731200      -0.35545400
Cu       5.71612000       4.74616000      20.20760000      -0.06215400       0.20230600       0.14794800       0.21116500
Cu       9.53496000       7.12927000      20.10330000      -0.05857400       0.14713200      -0.86282400       0.56758100
Cu       2.01607000       7.10403000      20.13780000      -0.05512200      -0.15522600      -0.53655500       0.50343200
Cu       4.56002000       7.03836000      20.30830000      -0.06548000      -0.16268900      -0.27887000      -0.53272200
Cu       7.02826000       6.80462000      20.33600000      -0.06447500       0.00809100       0.79277300      -0.56593200
O        1.18024000       4.79210000       2.54571000      -1.33942200      -1.48646000      -2.18023500      -2.38859600
O        6.70261000       7.41596000       4.11025000      -1.32236200       0.85675400       0.45878900       0.02133600
O        8.71046000       2.56196000       1.67743000      -1.34610800       0.80672600       0.51899700      -0.68667300
O        0.65130000       1.69073000      24.30760000      -1.37680200       0.73051700      -1.17141800       0.86425000
O        3.18491000       2.49857000      23.54820000      -1.28864500       0.74566700       1.30967400       1.24448100
O        1.84000000       3.57645000       6.59554000      -1.32917000      -1.48675500      -2.08457300      -0.23993500
O        8.64909000       3.37688000      23.08780000      -1.32725300       0.36884500       0.17858600       2.42107400
O        9.16868000       0.33882000       3.72134000      -1.38426200      -2.58428200      -0.04606300       0.00646400
O        9.38945000       7.77192000      28.26440000      -1.29458600       1.12539000       1.29301600      -1.76528800
O        3.29861000       2.56868000      26.99730000      -1.32893900       0.78753800       0.85921200      -0.32051400
O        1.06836000       1.65281000       1.17953000      -1.34662400       0.91236700      -0.93402800      -1.51979000
O        1.35143000       6.42117000      27.62290000      -1.26437500       0.79807800      -1.16785400      -0.69138700
O        1.92434000       7.89999000       6.46545000      -1.35442400       1.26515300      -1.16562200      -0.45996500
O        1.20404000       4.28424000      26.29920000      -1.31953300      -0.34625400      -1.30981200      -0.49011300
O        4.15773000       8.35971000       3.64388000      -1.30847900       1.44013300      -0.12649700      -0.30622800
O        5.65841000       2.38916000       6.15405000      -1.25733000      -0.35909300      -0.46621600       1.96761700
O        7.73879000       2.43107000       4.59770000      -1.36505800       1.18320800       0.22013400      -0.75682800
O        4.79312000       7.43804000      29.45490000      -1.37580900      -1.81202200      -0.48759200      -1.23874800
O        2.33493000       7.86181000      23.32850000      -1.33288400      -0.90441000       1.17157000      -0.26059500
O        6.40474000       6.76962000       1.13898000      -1.26998000       1.25345900       0.04992700       0.13624800
O        5.69046000       3.47226000      25.52030000      -1.34486200      -0.82882200      -2.63314400      -0.03684700
O        7.37442000       4.44802000      29.76990000      -1.32891800      -0.55243400       0.40767100      -0.52514600
O        5.16953000       1.24276000      28.88480000      -1.31173300       0.98089400       0.03896400       0.48342300
O        1.59127000       5.00739000      23.56990000      -1.35172100       0.43638400       0.44705700      -2.27349700
O        8.26523000       5.27799000       7.04371000      -1.25992400      -0.31872500      -1.93096000       1.21114200
O        7.32373000       6.03757000      27.60780000      -1.34685900       0.39225600       0.67149000      -0.73012800
O        2.27569000       8.18852000       0.91402000      -1.31425400       0.51708400      -0.26355600      -0.20861200
O        7.38008000       2.41537000      27.33760000      -1.35522000       0.12661900       0.10252500      -0.71292400
O        1.18289000       1.70008000       4.02138000      -1.29365200       1.73928300       0.39327400      -0.39851200
O        4.20378000       5.82668000      23.12720000      -1.30668600      -0.28225700       0.10108100       0.80678100
O        3.67604000       3.73140000       2.35928000      -1.31386500      -0.14869000       0.30415800      -0.18533500
O        3.18177000       1.29373000       5.83904000      -1.32303700      -1.55720300       0.55889700       0.54470900
O        5.58800000       1.61025000       1.65025000      -1.30108200      -0.44500100      -0.65098000      -0.89768900
O        3.60277000       5.68744000       6.96049000      -1.34968100       1.23725700      -1.35370500       0.38374500
O        7.29012000       8.11209000      23.79310000      -1.27741700      -0.38084600       0.30008000      -1.02770300
O        5.97986000       5.13192000       5.59303000      -1.32586100      -0.57001600       0.44657900       0.54215100
O        9.33198000       8.33276000       6.90182000      -1.19666700      -0.08987800       1.61964500       2.02105200
O        0.39384000       6.11620000       0.36071000      -1.32948700       0.27229500       0.14162200       1.80745800
O        6.39940000       1.90762000      23.45080000      -1.33776300       1.96199000       0.63639100       1.41510500
O        9.03654000       8.14314000       1.24993000      -1.36020300      -0.94443100      -1.47364000      -1.08313700
O        9.76759000       4.04841000       4.88224000      -1.31655000      -0.35631800       0.75031800      -0.75350100
O        5.35890000       6.58625000      25.81370000      -1.33011800      -1.19687900       0.09738900      -0.99581700
O        6.42692000       4.27702000       3.08801000      -1.33124100      -0.74571800       0.35400800       0.53011800
O        4.04976000       4.31769000      29.71320000      -1.32041700      -0.81755000       0.54009700      -0.90851600
O        1.12059000       2.82219000      28.92140000      -1.36664100      -1.07882700       0.58911700       1.74315700
O       10.03630000       1.40458000      26.96830000      -1.29514200      -2.11263400       0.78546900      -0.10926600
O        9.82068000       7.42554000      24.15880000      -1.33739600       1.89701000       0.47607100       0.00101400
O        3.21593000       8.51593000      25.79150000      -1.35470000      -1.11566300       1.20569600      -0.35409100
O        9.04048000       5.17365000      25.60080000      -1.32922500      -0.88013400       0.78378900       0.08073600
O        1.73409000       7.21217000       3.46422000      -1.35735200      -1.02744300      -0.43960700      -2.44963300
H        0.71532000       4.85542000       1.62377000       0.64884700       1.10124700       0.27890400       2.05510600
H        1.32804000       5.68322000       2.83354000       0.69130500       0.30505100       1.75322000       0.35573900
H        7.56448000       7.87552000       4.23004000       0.67550500      -0.35552600      -0.04459900      -0.27718600
H        6.64603000       6.80502000       4.85081000       0.63970100      -0.03274000      -0.31518400      -0.08358100
H        5.07015000       7.98108000       3.71136000       0.64069600      -0.62639100      -0.18886000       0.56308000
H        8.17373000       1.83519000       1.94359000       0.65298800      -1.13212800      -0.66182500       0.38914800
H        1.56275000       1.74849000      23.95440000       0.68193100      -0.37257400       0.58985300       0.03661200
H        0.04462000       2.18366000      23.77540000       0.67459100      -0.42516200       0.64801400      -0.90158100
H        3.44363000       3.31100000      24.06490000       0.62291000      -0.20450800      -1.37533000       0.05049400
H        3.01560000       2.97017000      22.73650000       0.63103300      -0.39120100      -0.11253300      -1.30451200
H       10.05530000       0.56250000       3.95597000       0.69840600       1.62672000       0.37649300       0.34739200
H        1.24228000       3.46789000       7.35508000       0.61294500       0.35281900       0.15861900      -0.04461000
H        1.26009000       8.03454000       7.12176000       0.65187000      -0.98620200       0.32136800       0.44667000
H        8.92159000       3.98177000      23.84530000       0.65154500      -0.56753200      -0.47345100      -0.86277400
H        1.55355000       0.74299000       1.10910000       0.66137600      -0.71062800       1.29727800       0.35923000
H        8.65111000       1.14282000       4.05358000       0.66883000       0.43857900      -0.88432000      -0.40121800
H       10.13300000       7.34431000      27.67630000       0.64454500      -1.02865700       0.42063900       1.47026500
H        3.28025000       1.69745000      26.59710000       0.66973200       0.06151500      -0.79144600      -0.42927100
H        4.04692000       3.04474000      26.53760000       0.66511500      -0.69407200      -0.58422500       0.46883200
H        7.23897000       7.24092000       1.29920000       0.64574500       0.26704300       0.59217700      -0.60101500
H        1.19531000       1.97333000       0.22179000       0.65027000      -0.50514600       0.09610000       1.32806600
H        4.47160000       1.70497000      28.44460000       0.63906700      -0.95537600       0.50729100      -0.51545800
H        2.19771000       6.74794000      27.27340000       0.58756200      -0.50076800       0.23437500       0.13866700
H        1.32375000       5.46536000      27.22060000       0.66516800      -0.04988400       1.42064100       0.54954000
H        2.34571000       4.35083000       6.73438000       0.69242300       1.21502000       1.86054300       0.48180000
H        2.46617000       8.71136000       6.41095000       0.67266100       0.04284400       0.35512700      -0.23459300
H        1.57621000       3.40890000      26.50280000       0.65516200       0.48050600       0.31305600       0.11552400
H        0.23405000       4.13552000      26.24260000       0.67916600       0.26384300       0.65510100      -0.14836300
H        8.91957000       3.80439000      22.27730000       0.62726900       0.19351600       0.47088800      -0.80979800
H        4.42758000       0.23260000       2.99182000       0.64148700      -0.43707800       0.77594600      -0.39153300
H        5.75046000       2.17680000       7.11891000       0.58178800       0.16724500      -0.21044200      -0.81524100
H        8.38109000       3.13039000       4.90670000       0.67943000      -0.27333600      -0.68412600      -0.33165700
H        7.01683000       2.30970000       5.20503000       0.68077300      -0.54731800       0.06525200       0.76164800
H        4.40080000       6.55074000      29.27210000       0.65147700       0.42394400       0.72883900       0.17673100
H        5.44984000       7.27478000       0.00137000       0.72174200       0.56031500      -0.29229100       0.85651100
H        3.08626000       7.31202000      23.05100000       0.69308600       0.29167900      -0.13158200      -0.24614900
H        2.08862000       8.53194000      22.64280000       0.59796900       0.67692700      -0.87334100       0.33171000
H        5.27871000       3.27134000       6.23736000       0.65754500       0.07658000       0.58411700      -0.60905500
H        6.34305000       6.36426000       1.99666000       0.64912100      -0.70886000      -0.78626900       0.92067600
H        5.91003000       4.37680000      25.47560000       0.67237500       0.26149800       1.94351900      -0.80532600
H        5.81177000       2.92839000      24.67570000       0.67753000       0.12290500       1.03364300       0.68782000
H        9.54184000       8.74779000      27.99960000       0.62410500      -0.42880000      -1.84026400       0.35775600
H        7.08290000       5.18389000       0.19299000       0.64347300       0.01772100       0.06647900       0.40334900
H        7.81959000       3.82028000       0.20850000       0.67991600       0.34699900      -0.53680500       0.49952300
H        4.92539000       0.30656000      28.93820000       0.66481500      -0.09697500      -0.39880300      -0.13316400
H        1.37920000       4.65786000      24.41650000       0.67234400      -0.62156700      -0.08768600       1.69723300
H        8.91758000       4.71112000       6.54947000       0.64963300      -0.55384600       0.62004700       0.16024600
H        7.30121000       5.30867000      28.25520000       0.67542300       0.40151300       0.20532300       0.49163800
H        7.90658000       4.67915000       7.81776000       0.55044100       1.03703500       1.37000500      -1.56245600
H        1.08011000       5.80880000      23.35240000       0.66126700       0.11594400      -0.40004800       0.64771600
H        7.94846000       6.78161000      27.87390000       0.67587500      -0.35246800      -0.90637400       0.19730600
H        3.10792000       8.09486000       0.41520000       0.64944400      -0.13246100      -0.10933500       0.07683200
H        1.67955000       7.48194000       0.60594000       0.67609500      -0.06795000      -0.28906800      -0.11494700
H        6.90793000       2.88771000      26.61500000       0.65274400       0.29843600      -0.07317400       0.14376900
H        2.06162000       1.43985000       4.43403000       0.64436900      -1.05916000       0.43313500      -0.77453600
H        3.40733000       5.27728000      23.05540000       0.65571400      -0.48858000       0.11658100       0.39303900
H        6.64046000       1.89749000      27.67980000       0.68441100       0.02714600      -0.39952300       0.71015300
H        4.51991000       5.82108000      22.22820000       0.58077600       0.73287300      -0.04049700      -0.97540800
H        4.15312000       4.35045000       2.93044000       0.62316500      -0.02196700      -0.19059600      -0.34257000
H        2.78211000       4.13009000       2.23051000       0.66907600      -0.11052600      -0.14813100       0.63125900
H        2.72391000       2.10354000       6.21595000       0.66634800       0.82813900      -0.64190500      -0.33960700
H        5.12981000       1.54217000       0.77920000       0.63118600       0.71262500      -0.14259100       0.46694400
H        4.12932000       1.40732000       5.87149000       0.65800100       0.62069800       0.39543200      -0.10370000
H        5.31178000       2.48085000       1.92569000       0.65377900      -0.23344000       0.65066000       0.49746300
H        2.01637000       2.91634000      28.71120000       0.68200600       2.45547000       0.62462100      -0.31702600
H        4.04042000       5.66024000       7.84890000       0.56824100      -0.52495600       0.10310600      -0.54942600
H        3.14306000       6.51690000       6.90817000       0.71626900      -0.98007800       1.49108800      -0.10531900
H        7.06699000       0.27551000      23.64210000       0.67352500      -0.20761100      -0.00606100       0.47180600
H        6.80997000       5.12442000       6.10549000       0.65169200       0.44672000       0.05759700       0.12877100
H        9.23024000       7.47325000       7.28215000       0.60487700      -0.29687400      -1.80709200      -0.29654600
H        5.37043000       5.70480000       6.09772000       0.66428000      -0.22283600      -0.41472900      -0.20276700
H        7.10554000       7.78592000      22.88630000       0.56593100       0.16961800      -0.25671100       0.51080000
H        9.24874000       0.00325000       7.80949000       0.52641700       0.05529900       0.08499400      -1.62056600
H        9.83988000       6.68734000       0.75162000       0.66642300       0.18440200       0.29198500       0.37023300
H        0.05860000       6.04481000      29.63030000       0.67078700      -0.24236200      -0.33470800      -2.25513400
H        1.37455000       2.10581000       3.12631000       0.64730700      -0.17873100      -0.74421700       1.13078100
H        9.28321000       8.46320000       2.10721000       0.71247300       0.19594900       0.81919400       1.77947600
H        0.45484000       3.66870000       5.20186000       0.67367400       0.28269700      -0.20190000      -0.24044100
H        9.30888000       0.01184000       0.61785000       0.65590300       0.26634000       0.53606500      -0.56174600
H        5.90311000       1.91662000      22.64640000       0.64152200      -0.53195400       0.18284600      -1.20228100
H        9.91548000       4.24911000       3.91168000       0.65417600       0.18991700      -0.24298500       1.14865400
H        6.01553000       6.54900000      26.49660000       0.68639900       1.02515700      -0.03460300       1.14644900
H        5.68266000       7.22499000      25.16660000       0.63636600       0.28554500      -0.18989500      -0.12673600
H        9.55953000       2.09279000       1.49985000       0.66965800       0.16997600       0.57227300       0.05142700
H        6.08605000       4.52350000       3.98750000       0.63758100       0.61110700      -0.09628200      -0.96283600
H        3.71324000       4.19973000       0.47051000       0.65873100      -0.00774800      -0.10837200       0.71719500
H        6.87548000       3.43389000       3.26854000       0.66864500       0.24364600       0.12330800       0.00379200
H        4.94935000       4.03644000      29.77990000       0.64635700       1.15936000      -0.32766600       0.03989400
H        0.79365000       2.36523000      28.16940000       0.69100600      -1.16839600      -1.09861800      -1.30261200
H        7.27170000       2.43113000      23.31390000       0.67493100      -1.35187400      -0.53387000      -0.33296000
H        0.19805000       1.37235000      26.03980000       0.66268800      -0.12207300      -0.05449200      -0.01339600
H        9.04746000       1.72668000      26.94130000       0.63119900       1.76859300      -0.46512900       0.14154500
H        0.55935000       7.90750000      24.12240000       0.64097800      -1.43809200      -0.87261200       0.12895700
H        9.14469000       8.05703000      23.87970000       0.68045300      -0.38405400      -0.13904800       0.10554300
H        3.84060000       7.81478000      25.94330000       0.66141700       0.73168700      -0.73762000      -0.13324400
H        2.85870000       8.43094000      24.86520000       0.66199900       0.58085200      -0.26316400       0.91940300