246
Lattice="10.140377178 0.0 0.0 0.0 8.78182424 0.0 0.0 0.0 30.131127158" Properties=species:S:1:pos:R:3:initial_charges:R:1:forces:R:3 NELECT0=1456.0 NELECT=1460.4266079088686 U_vs_SHE=-2.1478171763943785 stress="0.0028526817459849432 0.0007240525076572133 -0.0005572481762679832 0.0007240525076572133 0.0006801060419018692 0.00046958618059495286 -0.0005572481762679832 0.00046958618059495286 -0.00905562458697937" free_energy=-1799.6706575 energy=-1812.1344082696137 pbc="T T T"
Cu       7.01435000       1.18829000       9.80289000      -0.09070400      -0.46550700       0.23494200       0.31222000
Cu       9.52853000       1.30890000       9.89738000      -0.10351200      -0.14607400      -0.22940700       0.16865400
Cu       1.92963000       1.24428000      10.08520000      -0.10131700      -0.49731500      -0.26346200      -1.20302800
Cu       4.30827000       1.15529000       9.70357000      -0.09319700       0.71437900       0.17443500       0.53684900
Cu       8.16542000       3.46619000       9.93387000      -0.13216000       0.19922200      -0.64553200      -0.07809500
Cu       0.56259000       3.45476000       9.89481000      -0.10936800       0.53137100      -0.45579900       0.07953800
Cu       3.10719000       3.43002000       9.81099000      -0.06053400       0.28967600      -0.08213200       0.21841900
Cu       5.66680000       3.42243000       9.85774000      -0.11261700       0.04927000      -0.45750000      -0.10960000
Cu       9.54277000       5.50670000       9.96038000      -0.03930100      -0.52997400       0.93630700      -0.41219100
Cu       1.93546000       5.62673000       9.96244000      -0.06752300      -0.43497400      -0.20257600      -0.24102400
Cu       4.45151000       5.63600000       9.98745000      -0.13295500       0.06129000      -0.06406200      -0.28803700
Cu       6.94735000       5.52075000      10.10400000      -0.09740700      -0.23970000       0.62009700      -0.47927900
Cu       0.40624000       7.86637000       9.87071000      -0.08558200       0.60406300      -0.36369800       0.20346500
Cu       3.02808000       7.75042000       9.86592000      -0.05207700       0.47218500       0.45739800      -0.03600200
Cu       5.70338000       7.77336000       9.78185000      -0.08289100      -0.62482000       0.14215100       0.55162400
Cu       8.05562000       7.74211000       9.87921000      -0.06718700       0.86359800       0.00136500       0.18753300
Cu       5.70547000       1.97081000      11.97700000       0.00006900       0.25652700      -0.50871900      -0.48441600
Cu       8.27824000       1.86216000      11.92560000      -0.00037000       0.01091600       0.27265000       0.16616500
Cu       0.76452000       1.91042000      12.00300000      -0.00281000      -1.06654900      -0.00315500       0.08104100
Cu       3.20008000       1.93930000      11.92880000      -0.00426900       0.45746300      -0.02287100       0.29927400
Cu       7.02802000       4.11066000      12.03140000      -0.00656100      -0.12852200      -0.26531700      -0.05525700
Cu       9.57131000       4.15502000      11.93820000       0.00588200      -0.51137200      -0.85037700       0.48100300
Cu       1.98925000       4.10330000      11.94410000       0.01463100      -0.17257200       0.08318500       0.03299200
Cu       4.51576000       4.10518000      11.87400000      -0.00065900      -0.46288900      -0.02136100       0.51591000
Cu       8.20185000       6.37463000      12.04620000       0.00052100       0.11437500      -0.68312700      -0.50607800
Cu       0.58977000       6.20790000      11.93930000       0.00566500       0.51001300       0.65571300       0.21885600
Cu       3.21554000       6.37538000      11.91460000      -0.00979500      -0.47856200      -0.38604100       0.55109000
Cu       5.60305000       6.30826000      12.11400000      -0.00517800       0.88065300       0.21279100      -0.95476200
Cu       9.51260000       8.40538000      12.00040000       0.00065000       0.06850900       0.63695200      -0.28685400
Cu       1.85658000       8.39675000      11.91060000      -0.00362200       0.00068800       0.27230100       0.32945700
Cu       4.41857000       8.57656000      11.96470000       0.01008300       0.22187000      -0.22624000      -0.49344600
Cu       7.04150000       8.50529000      11.96540000       0.00399000      -0.86526400       0.15804000      -0.18183900
Cu       5.70396000       0.36591000      14.03060000       0.01548700       0.03432200       0.03753200      -0.05728300
Cu       8.23906000       0.36591000      14.03060000      -0.03907500       0.02730200       0.06701900       0.08820300
Cu       0.63377000       0.36591000      14.03060000      -0.01567000       0.04616100       0.01441800      -0.01340700
Cu       3.16887000       0.36591000      14.03060000      -0.00878200      -0.12234200       0.03957000      -0.08523400
Cu       6.97151000       2.56137000      14.03060000      -0.01368400       0.09883900      -0.02715000       0.05581000
Cu       9.50660000       2.56137000      14.03060000       0.00510500      -0.00591800       0.04646400      -0.12932500
Cu       1.90132000       2.56137000      14.03060000      -0.04913400       0.16360400       0.11479100       0.17887300
Cu       4.43642000       2.56137000      14.03060000      -0.01323300      -0.05933600       0.09190400      -0.01736800
Cu       8.23906000       4.75682000      14.03060000      -0.01952600       0.17442700       0.05188600       0.19895200
Cu       0.63377000       4.75682000      14.03060000      -0.01708700       0.08246800      -0.02519500       0.02012100
Cu       3.16887000       4.75682000      14.03060000      -0.01238000       0.11909500       0.07698700      -0.11739100
Cu       5.70396000       4.75682000      14.03060000      -0.01293700      -0.05319800      -0.11654400       0.21435100
Cu       9.50660000       6.95228000      14.03060000      -0.01512200       0.14401800      -0.02611500       0.26588600
Cu       1.90132000       6.95228000      14.03060000       0.00670100      -0.02217800      -0.03828300      -0.12691500
Cu       4.43642000       6.95228000      14.03060000      -0.04680600      -0.32487800       0.24236900       0.47983200
Cu       6.97151000       6.95228000      14.03060000      -0.01976400      -0.04907700       0.17004200       0.43729000
Cu       6.97151000       1.09773000      16.10050000      -0.01422100       0.05787200       0.15758300       0.01588600
Cu       9.50660000       1.09773000      16.10050000      -0.01672200       0.02650600       0.12045600      -0.12289700
Cu       1.90132000       1.09773000      16.10050000      -0.03652400       0.14894800       0.07856800      -0.00984000
Cu       4.43642000       1.09773000      16.10050000       0.01780900      -0.02925100       0.06071500       0.18571700
Cu       8.23906000       3.29318000      16.10050000       0.00702700      -0.02471800       0.03339200       0.12241500
Cu       0.63377000       3.29318000      16.10050000      -0.04206400       0.16063800      -0.01839000      -0.30322500
Cu       3.16887000       3.29318000      16.10050000       0.00933500       0.07120700      -0.07374500       0.18421000
Cu       5.70396000       3.29318000      16.10050000      -0.04198700       0.02511300       0.12050100       0.00911500
Cu       9.50660000       5.48864000      16.10050000      -0.04104000       0.11479700       0.24465800      -0.25622100
Cu       1.90132000       5.48864000      16.10050000       0.01204700       0.08246900       0.03295400       0.18057700
Cu       4.43642000       5.48864000      16.10050000      -0.01627700      -0.06003600      -0.00884600       0.06694200
Cu       6.97151000       5.48864000      16.10050000      -0.01655400       0.31873800      -0.10689800      -0.43958500
Cu       0.63377000       7.68410000      16.10050000       0.00421300       0.15458600      -0.01235900      -0.01847200
Cu       3.16887000       7.68410000      16.10050000      -0.02043400       0.14685100      -0.08363000      -0.09439400
Cu       5.70396000       7.68410000      16.10050000      -0.01989700       0.04642200       0.02829400      -0.06103200
Cu       8.23906000       7.68410000      16.10050000      -0.04545300       0.10885800      -0.00269500      -0.34458400
Cu       5.75469000       1.93529000      18.16910000       0.00458800       0.30775800      -0.53201800       0.23778900
Cu       8.37853000       1.89026000      18.21470000       0.00079500      -0.30125200       0.25404600      -0.18256900
Cu       0.73248000       1.87312000      18.13590000       0.00328600       0.00042500      -0.20396500       0.44862100
Cu       3.29897000       1.84580000      18.33130000       0.00768900      -0.25384600       0.21215900      -0.65434500
Cu       6.99316000       4.10254000      18.21410000      -0.00595500       0.38675300      -0.77950400      -0.85528700
Cu       9.66136000       4.12220000      18.07120000      -0.00109600      -0.65595800      -0.39018800       0.51502600
Cu       1.95747000       3.99957000      18.19260000       0.00424700       0.36566000       0.37828700       0.01137900
Cu       4.46997000       4.01661000      18.21420000      -0.00776600      -0.10654700       0.18872200      -0.24431400
Cu       8.33547000       6.28702000      18.15410000       0.00210600      -0.03858300      -0.21711800      -0.03294300
Cu       0.75637000       6.28866000      18.22350000      -0.00626700      -0.01352100       0.20900200      -0.76431400
Cu       3.28621000       6.27285000      18.24250000       0.00766700       0.10905900      -0.43332300      -0.25260600
Cu       5.86738000       6.13343000      18.07490000       0.00013700      -0.85608700       1.05990400       0.81425400
Cu       9.56415000       8.45664000      18.10170000      -0.00751300       0.47939600       0.21141000       0.04400500
Cu       2.11013000       8.46748000      18.14200000      -0.01359800      -0.82056900       0.17502500       0.01139900
Cu       4.55143000       8.43301000      18.18190000       0.00066100       0.15413500      -0.06915900      -0.04706100
Cu       7.09852000       8.44800000      18.10530000       0.01044900      -0.54801100      -0.02135900       0.47172300
Cu       5.79037000       0.34358000      20.16730000      -0.11785600       0.23133900       0.34766400       0.16744700
Cu       8.32571000       0.38959000      20.13490000      -0.10152300      -0.43270000       0.32824700       0.37836100
Cu       0.66187000       0.40709000      20.22990000      -0.09632200       0.33695500       0.44325200      -0.21633800
Cu       3.19113000       0.44235000      20.26860000      -0.08377800       0.34521900      -0.06068500       0.20260500
Cu       7.06569000       2.65440000      20.21310000      -0.08607800      -0.20775700      -0.71885000       0.00300900
Cu       9.64677000       2.66572000      20.30430000      -0.07400600      -0.09617100      -0.26348800      -0.58490000
Cu       2.00528000       2.67145000      20.32560000      -0.09108000      -0.28472200      -0.28499600      -0.21133000
Cu       4.52102000       2.57711000      20.43560000      -0.09040200       0.16220000      -0.20327400      -0.46012700
Cu       8.24364000       4.72726000      20.07700000      -0.11716600       0.75680000       0.40607900       0.54097600
Cu       0.63417000       4.88522000      20.11180000      -0.06811600       0.28958200      -0.20838800       0.66235300
Cu       3.32471000       4.72584000      20.29960000      -0.07488900      -0.64127000       0.50062600      -0.34673300
Cu       5.71612000       4.74616000      20.20760000      -0.08087400       0.19462300       0.15169800       0.24501400
Cu       9.53496000       7.12927000      20.10330000      -0.07890800       0.14742300      -0.86214700       0.58258000
Cu       2.01607000       7.10403000      20.13780000      -0.07501100      -0.15545800      -0.53534600       0.51390600
Cu       4.56002000       7.03836000      20.30830000      -0.08843600      -0.16233200      -0.27993100      -0.52546200
Cu       7.02826000       6.80462000      20.33600000      -0.09305000       0.00866300       0.80181200      -0.53656900
O        1.18024000       4.79210000       2.54571000      -1.33728900      -1.46080500      -2.19166900      -2.51808900
O        6.70261000       7.41596000       4.11025000      -1.33165300       0.87599400       0.48177400      -0.13000100
O        8.71046000       2.56196000       1.67743000      -1.34749800       0.81155200       0.50626200      -0.76890500
O        0.65130000       1.69073000      24.30760000      -1.38912500       0.69740300      -1.15656600       1.12904800
O        3.18491000       2.49857000      23.54820000      -1.29744200       0.70337800       1.26803600       1.53038800
O        1.84000000       3.57645000       6.59554000      -1.34777800      -1.49498200      -2.09142900      -0.53391700
O        8.64909000       3.37688000      23.08780000      -1.33501400       0.35878400       0.14551500       2.79458900
O        9.16868000       0.33882000       3.72134000      -1.38830400      -2.55491200      -0.06906200      -0.17716800
O        9.38945000       7.77192000      28.26440000      -1.29890600       1.12682600       1.29491000      -1.68976400
O        3.29861000       2.56868000      26.99730000      -1.33624300       0.80500700       0.83252400      -0.17879100
O        1.06836000       1.65281000       1.17953000      -1.34658100       0.92224500      -0.94832300      -1.58126200
O        1.35143000       6.42117000      27.62290000      -1.27012200       0.81014500      -1.12228300      -0.58040400
O        1.92434000       7.89999000       6.46545000      -1.36676200       1.27856300      -1.08859400      -0.74239800
O        1.20404000       4.28424000      26.29920000      -1.31947900      -0.33143000      -1.29657500      -0.26767500
O        4.15773000       8.35971000       3.64388000      -1.30523700       1.43022500      -0.13085000      -0.44379200
O        5.65841000       2.38916000       6.15405000      -1.27839400      -0.33018000      -0.44500400       1.67632000
O        7.73879000       2.43107000       4.59770000      -1.37139100       1.23598200       0.21833300      -0.96804400
O        4.79312000       7.43804000      29.45490000      -1.37646800      -1.81650200      -0.49847300      -1.21009800
O        2.33493000       7.86181000      23.32850000      -1.35019100      -0.89036200       1.19038300       0.10781500
O        6.40474000       6.76962000       1.13898000      -1.27372800       1.26123200       0.05233000       0.08917000
O        5.69046000       3.47226000      25.52030000      -1.35309000      -0.79282200      -2.55694800       0.24538200
O        7.37442000       4.44802000      29.76990000      -1.32611400      -0.54747900       0.39565900      -0.49336600
O        5.16953000       1.24276000      28.88480000      -1.31489500       0.96763100       0.00972000       0.54804100
O        1.59127000       5.00739000      23.56990000      -1.34986600       0.40232900       0.41048300      -1.99537400
O        8.26523000       5.27799000       7.04371000      -1.27337500      -0.33072800      -1.90772100       0.81023900
O        7.32373000       6.03757000      27.60780000      -1.34586000       0.37621100       0.67957000      -0.56856800
O        2.27569000       8.18852000       0.91402000      -1.31455500       0.52385500      -0.27101500      -0.25350800
O        7.38008000       2.41537000      27.33760000      -1.35873100       0.12268000       0.06885000      -0.57127600
O        1.18289000       1.70008000       4.02138000      -1.29262600       1.68720000       0.39168600      -0.59444000
O        4.20378000       5.82668000      23.12720000      -1.32628300      -0.33404200       0.08543200       1.10044900
O        3.67604000       3.73140000       2.35928000      -1.31615100      -0.14929300       0.32724100      -0.27275100
O        3.18177000       1.29373000       5.83904000      -1.33094600      -1.57326600       0.57525700       0.27530200
O        5.58800000       1.61025000       1.65025000      -1.30108300      -0.44597700      -0.64656700      -0.96147300
O        3.60277000       5.68744000       6.96049000      -1.36865500       1.21389200      -1.30348900       0.05862600
O        7.29012000       8.11209000      23.79310000      -1.32752600      -0.38311700       0.30829400      -0.78808300
O        5.97986000       5.13192000       5.59303000      -1.33899200      -0.57590500       0.48806400       0.24323600
O        9.33198000       8.33276000       6.90182000      -1.23353700      -0.10055200       1.57680300       1.75993400
O        0.39384000       6.11620000       0.36071000      -1.33135500       0.25698000       0.14738200       1.78448300
O        6.39940000       1.90762000      23.45080000      -1.35478300       1.96588500       0.69949400       1.75910400
O        9.03654000       8.14314000       1.24993000      -1.36294600      -0.94796300      -1.48983000      -1.16456800
O        9.76759000       4.04841000       4.88224000      -1.31465700      -0.37538000       0.75310900      -1.03373500
O        5.35890000       6.58625000      25.81370000      -1.33170800      -1.16172300       0.09216000      -0.80088100
O        6.42692000       4.27702000       3.08801000      -1.34349600      -0.75633200       0.34739900       0.36202100
O        4.04976000       4.31769000      29.71320000      -1.32171100      -0.80959400       0.54573000      -0.90206000
O        1.12059000       2.82219000      28.92140000      -1.37054400      -1.06150700       0.58773400       1.81264300
O       10.03630000       1.40458000      26.96830000      -1.30079000      -2.15705800       0.78223600       0.07415000
O        9.82068000       7.42554000      24.15880000      -1.34606000       1.87062800       0.45601200       0.24093300
O        3.21593000       8.51593000      25.79150000      -1.36183100      -1.06197200       1.19641200      -0.09073700
O        9.04048000       5.17365000      25.60080000      -1.32733400      -0.93349000       0.76881800       0.35140800
O        1.73409000       7.21217000       3.46422000      -1.36214600      -1.01192700      -0.44173100      -2.60216000
H        0.71532000       4.85542000       1.62377000       0.64412400       1.12147200       0.27116100       2.11081000
H        1.32804000       5.68322000       2.83354000       0.69144300       0.31121500       1.78803100       0.40938300
H        7.56448000       7.87552000       4.23004000       0.67595200      -0.37986000      -0.05150500      -0.20699500
H        6.64603000       6.80502000       4.85081000       0.64730100      -0.05476600      -0.36187900       0.01256200
H        5.07015000       7.98108000       3.71136000       0.64113200      -0.59973200      -0.19575400       0.62340000
H        8.17373000       1.83519000       1.94359000       0.65360100      -1.12047800      -0.65128000       0.43731700
H        1.56275000       1.74849000      23.95440000       0.68419900      -0.32042300       0.59047000      -0.06089700
H        0.04462000       2.18366000      23.77540000       0.68010800      -0.46370300       0.65418000      -1.00639600
H        3.44363000       3.31100000      24.06490000       0.61131500      -0.20886800      -1.34388100      -0.04204700
H        3.01560000       2.97017000      22.73650000       0.63804800      -0.37264000      -0.11523200      -1.48444200
H       10.05530000       0.56250000       3.95597000       0.69967100       1.63146100       0.37465100       0.41092700
H        1.24228000       3.46789000       7.35508000       0.61828400       0.33357000       0.13810900       0.12759800
H        1.26009000       8.03454000       7.12176000       0.65846500      -0.99099900       0.30240400       0.55128800
H        8.92159000       3.98177000      23.84530000       0.64026800      -0.57631000      -0.52690700      -1.02425200
H        1.55355000       0.74299000       1.10910000       0.66092400      -0.72111500       1.31592800       0.37919600
H        8.65111000       1.14282000       4.05358000       0.67038800       0.39364000      -0.83410600      -0.31550600
H       10.13300000       7.34431000      27.67630000       0.64579400      -1.01404300       0.40536600       1.42541000
H        3.28025000       1.69745000      26.59710000       0.67176300       0.05067700      -0.80500500      -0.50118200
H        4.04692000       3.04474000      26.53760000       0.66771000      -0.66629300      -0.56555200       0.38039700
H        7.23897000       7.24092000       1.29920000       0.64551700       0.25832700       0.58838200      -0.57768500
H        1.19531000       1.97333000       0.22179000       0.64858500      -0.50852100       0.09137500       1.31641400
H        4.47160000       1.70497000      28.44460000       0.64048700      -0.96670500       0.51714800      -0.57163800
H        2.19771000       6.74794000      27.27340000       0.58937100      -0.51043500       0.24907900       0.07951400
H        1.32375000       5.46536000      27.22060000       0.66546500      -0.06708900       1.33187900       0.45216000
H        2.34571000       4.35083000       6.73438000       0.69277100       1.23786600       1.85983700       0.57156900
H        2.46617000       8.71136000       6.41095000       0.67035100      -0.00052500       0.26861400      -0.12112900
H        1.57621000       3.40890000      26.50280000       0.65307000       0.46690500       0.33210500       0.04037900
H        0.23405000       4.13552000      26.24260000       0.67901600       0.24342600       0.67206500      -0.22683100
H        8.91957000       3.80439000      22.27730000       0.63226300       0.21962400       0.49761500      -1.03701500
H        4.42758000       0.23260000       2.99182000       0.63661500      -0.44065000       0.76247000      -0.33580300
H        5.75046000       2.17680000       7.11891000       0.59175400       0.18042100      -0.23062500      -0.61560300
H        8.38109000       3.13039000       4.90670000       0.68076000      -0.26184100      -0.67785100      -0.26648100
H        7.01683000       2.30970000       5.20503000       0.68485500      -0.65775300       0.05916900       0.91891900
H        4.40080000       6.55074000      29.27210000       0.65102300       0.42966400       0.73749800       0.15596600
H        5.44984000       7.27478000       0.00137000       0.72130400       0.56179100      -0.29620400       0.86227100
H        3.08626000       7.31202000      23.05100000       0.69430900       0.30370100      -0.15339100      -0.34231100
H        2.08862000       8.53194000      22.64280000       0.60204900       0.66500600      -0.83957300       0.16292000
H        5.27871000       3.27134000       6.23736000       0.65572500       0.07622800       0.54709700      -0.50672100
H        6.34305000       6.36426000       1.99666000       0.65126100      -0.70622900      -0.78601600       0.97851000
H        5.91003000       4.37680000      25.47560000       0.67153900       0.23920300       1.91896600      -0.87018500
H        5.81177000       2.92839000      24.67570000       0.68316000       0.16243100       0.88969300       0.43092000
H        9.54184000       8.74779000      27.99960000       0.62437900      -0.41825000      -1.80980000       0.30575300
H        7.08290000       5.18389000       0.19299000       0.64281900       0.01996300       0.06312700       0.40832900
H        7.81959000       3.82028000       0.20850000       0.67557000       0.34154500      -0.53751100       0.51277100
H        4.92539000       0.30656000      28.93820000       0.66436400      -0.09549400      -0.37579600      -0.15609900
H        1.37920000       4.65786000      24.41650000       0.66346700      -0.60996400      -0.04282000       1.50771100
H        8.91758000       4.71112000       6.54947000       0.63947600      -0.60685800       0.66258800       0.34879200
H        7.30121000       5.30867000      28.25520000       0.67280600       0.41307800       0.24549000       0.42615200
H        7.90658000       4.67915000       7.81776000       0.55564700       1.00293100       1.30888000      -1.34227500
H        1.08011000       5.80880000      23.35240000       0.66247000       0.11453500      -0.39992900       0.53787800
H        7.94846000       6.78161000      27.87390000       0.67395900      -0.36366900      -0.93494500       0.16294700
H        3.10792000       8.09486000       0.41520000       0.64844200      -0.14124900      -0.10996500       0.08248100
H        1.67955000       7.48194000       0.60594000       0.67552800      -0.06342800      -0.28437500      -0.10678500
H        6.90793000       2.88771000      26.61500000       0.65663100       0.23861200      -0.03793600       0.01825300
H        2.06162000       1.43985000       4.43403000       0.64726700      -0.97137100       0.42525700      -0.61467700
H        3.40733000       5.27728000      23.05540000       0.64951100      -0.41806000       0.13001700       0.28592200
H        6.64046000       1.89749000      27.67980000       0.68093000       0.05471000      -0.37545800       0.65098200
H        4.51991000       5.82108000      22.22820000       0.58993900       0.74418600      -0.03224000      -1.10604500
H        4.15312000       4.35045000       2.93044000       0.62611200      -0.01565900      -0.20688600      -0.29432400
H        2.78211000       4.13009000       2.23051000       0.66784300      -0.11798200      -0.15172200       0.66200700
H        2.72391000       2.10354000       6.21595000       0.66960000       0.80419400      -0.58942600      -0.21616500
H        5.12981000       1.54217000       0.77920000       0.62836800       0.71441800      -0.13854300       0.47583200
H        4.12932000       1.40732000       5.87149000       0.65758100       0.63350200       0.41638700      -0.00002600
H        5.31178000       2.48085000       1.92569000       0.65426100      -0.22705100       0.65704900       0.53435000
H        2.01637000       2.91634000      28.71120000       0.68177900       2.44993500       0.62346100      -0.35694300
H        4.04042000       5.66024000       7.84890000       0.57456700      -0.49150500       0.08394100      -0.36134800
H        3.14306000       6.51690000       6.90817000       0.71391100      -0.94799200       1.43628600      -0.00854000
H        7.06699000       0.27551000      23.64210000       0.67359900      -0.21121300       0.00357700       0.39072700
H        6.80997000       5.12442000       6.10549000       0.65499300       0.57387400       0.04298200       0.28705700
H        9.23024000       7.47325000       7.28215000       0.60613400      -0.29078600      -1.76567900      -0.20338700
H        5.37043000       5.70480000       6.09772000       0.66778100      -0.30192600      -0.42624900      -0.08526700
H        7.10554000       7.78592000      22.88630000       0.60318300       0.16329400      -0.27844100       0.36239000
H        9.24874000       0.00325000       7.80949000       0.54055300       0.05468200       0.09499500      -1.49977500
H        9.83988000       6.68734000       0.75162000       0.66625400       0.18686700       0.29685100       0.37957200
H        0.05860000       6.04481000      29.63030000       0.67089500      -0.23483400      -0.32156400      -2.27203200
H        1.37455000       2.10581000       3.12631000       0.64004100      -0.18037500      -0.75325300       1.22928500
H        9.28321000       8.46320000       2.10721000       0.71407000       0.19487100       0.85435700       1.89810800
H        0.45484000       3.66870000       5.20186000       0.67633800       0.35270400      -0.19294400      -0.09468900
H        9.30888000       0.01184000       0.61785000       0.65430500       0.26576600       0.52872700      -0.55686900
H        5.90311000       1.91662000      22.64640000       0.64830000      -0.57404300       0.17843900      -1.38282300
H        9.91548000       4.24911000       3.91168000       0.64528400       0.16261500      -0.28383200       1.28482200
H        6.01553000       6.54900000      26.49660000       0.67871300       0.97173100      -0.01596800       1.03431200
H        5.68266000       7.22499000      25.16660000       0.64344000       0.30211700      -0.18230500      -0.24617400
H        9.55953000       2.09279000       1.49985000       0.66899200       0.15610800       0.57595600       0.07992800
H        6.08605000       4.52350000       3.98750000       0.64548600       0.59819600      -0.04309100      -0.78126900
H        3.71324000       4.19973000       0.47051000       0.65835100      -0.00384800      -0.11328200       0.74913600
H        6.87548000       3.43389000       3.26854000       0.66859900       0.26759000       0.10088900       0.08691800
H        4.94935000       4.03644000      29.77990000       0.64604900       1.15198000      -0.32773000       0.03474200
H        0.79365000       2.36523000      28.16940000       0.69284000      -1.19017700      -1.11202600      -1.36907600
H        7.27170000       2.43113000      23.31390000       0.67392900      -1.33504000      -0.53173700      -0.42478100
H        0.19805000       1.37235000      26.03980000       0.66722200      -0.07400400      -0.04157200      -0.20948500
H        9.04746000       1.72668000      26.94130000       0.63032500       1.79942900      -0.47234100       0.09880300
H        0.55935000       7.90750000      24.12240000       0.64193100      -1.38944100      -0.88910400       0.02414900
H        9.14469000       8.05703000      23.87970000       0.68310900      -0.42083100      -0.14398200       0.00851100
H        3.84060000       7.81478000      25.94330000       0.65702600       0.71876800      -0.71655700      -0.19313900