 vasp.6.4.3 19Mar24 (build Sep  4 2024 12:23:58) complex                         
 executed on              LinuxNV date 2025.10.01  16:24:27
 running    4 mpi-ranks, with    1 threads/rank, on    1 nodes
 distrk:  each k-point on    2 cores,    2 groups
 distr:  one band on NCORE=   1 cores,    2 groups
 OpenACC runtime initialized ...    4 GPUs detected


--------------------------------------------------------------------------------------------------------


 INCAR:
   ENCUT = 800.000000
   SIGMA = 0.100000
   EDIFF = 1.00e-07
   ALGO = fast
   METAGGA = R2SCAN
   PREC = Accurate
   IBRION = -1
   ICHARG = 2
   ISMEAR = 0
   ISTART = 0
   KPAR = 2
   NELM = 160
   NPAR = 2
   NCORE = 1
   LAECHG = .TRUE.
   LASPH = .TRUE.
   LVHAR = .TRUE.
   LMIXTAU = .TRUE.
   LREAL = Auto

 POTCAR:    PAW_PBE Cu 22Jun2005                  
 POTCAR:    PAW_PBE O_h 06Feb2004                 
 POTCAR:    PAW_PBE H_h 06Feb2004                 
 POTCAR:    PAW_PBE Cu 22Jun2005                  
   VRHFIN =Cu: d10 p1                                                                               
   LEXCH  = PE                                                                                      
   EATOM  =  1390.9808 eV,  102.2342 Ry                                                             
                                                                                                    
   TITEL  = PAW_PBE Cu 22Jun2005                                                                    
   LULTRA =        F    use ultrasoft PP ?                                                          
   IUNSCR =        1    unscreen: 0-lin 1-nonlin 2-no                                               
   RPACOR =    2.000    partial core radius                                                         
   POMASS =   63.546; ZVAL   =   11.000    mass and valenz                                          
   RCORE  =    2.300    outmost cutoff radius                                                       
   RWIGS  =    2.200; RWIGS  =    1.164    wigner-seitz radius (au A)                               
   ENMAX  =  295.446; ENMIN  =  221.585 eV                                                          
   ICORE  =        3    local potential                                                             
   LCOR   =        T    correct aug charges                                                         
   LPAW   =        T    paw PP                                                                      
   EAUG   =  586.980                                                                                
   DEXC   =    0.000                                                                                
   RMAX   =    2.344    core radius for proj-oper                                                   
   RAUG   =    1.300    factor for augmentation sphere                                              
   RDEP   =    2.302    radius for radial grids                                                     
   RDEPT  =    1.771    core radius for aug-charge                                                  
                                                                                                    
   Atomic configuration                                                                             
    9 entries                                                                                       
     n  l   j            E        occ.                                                              
     1  0  0.50     -8850.2468   2.0000                                                             
     2  0  0.50     -1062.3498   2.0000                                                             
     2  1  1.50      -916.8226   6.0000                                                             
     3  0  0.50      -114.6929   2.0000                                                             
     3  1  1.50       -72.1325   6.0000                                                             
     3  2  2.50        -5.0394  10.0000                                                             
     4  0  0.50        -4.6097   1.0000                                                             
     4  1  0.50        -4.0817   0.0000                                                             
     4  3  2.50        -1.3606   0.0000                                                             
   Description                                                                                      
     l       E           TYP  RCUT    TYP  RCUT                                                     
     2     -5.0393973     23  2.200                                                                 
     2     10.8846608     23  2.200                                                                 
     0     -4.6097109     23  2.200                                                                 
     0      8.2520465     23  2.200                                                                 
     1     -2.7211652     23  2.200                                                                 
     1     21.7055443     23  2.200                                                                 
     3      2.7211652     23  2.300                                                                 
  local pseudopotential read in
  partial core-charges read in
  partial kinetic energy density read in
  atomic valenz-charges read in
  non local Contribution for L=            2  read in
    real space projection operators read in
  non local Contribution for L=            2  read in
    real space projection operators read in
  non local Contribution for L=            0  read in
    real space projection operators read in
  non local Contribution for L=            0  read in
    real space projection operators read in
  non local Contribution for L=            1  read in
    real space projection operators read in
  non local Contribution for L=            1  read in
    real space projection operators read in
    PAW grid and wavefunctions read in
 
   number of l-projection  operators is LMAX  =            6
   number of lm-projection operators is LMMAX =           18
 
 POTCAR:    PAW_PBE O_h 06Feb2004                 
   VRHFIN =O: s2p4                                                                                  
   LEXCH  = PE                                                                                      
   EATOM  =   432.3788 eV,   31.7789 Ry                                                             
                                                                                                    
   TITEL  = PAW_PBE O_h 06Feb2004                                                                   
   LULTRA =        F    use ultrasoft PP ?                                                          
   IUNSCR =        1    unscreen: 0-lin 1-nonlin 2-no                                               
   RPACOR =    0.800    partial core radius                                                         
   POMASS =   16.000; ZVAL   =    6.000    mass and valenz                                          
   RCORE  =    1.100    outmost cutoff radius                                                       
   RWIGS  =    1.400; RWIGS  =    0.741    wigner-seitz radius (au A)                               
   ENMAX  =  700.000; ENMIN  =  500.000 eV                                                          
   ICORE  =        2    local potential                                                             
   LCOR   =        T    correct aug charges                                                         
   LPAW   =        T    paw PP                                                                      
   EAUG   =  888.804                                                                                
   DEXC   =    0.000                                                                                
   RMAX   =    1.128    core radius for proj-oper                                                   
   RAUG   =    1.300    factor for augmentation sphere                                              
   RDEP   =    1.125    radius for radial grids                                                     
   RDEPT  =    1.088    core radius for aug-charge                                                  
                                                                                                    
   Atomic configuration                                                                             
    4 entries                                                                                       
     n  l   j            E        occ.                                                              
     1  0  0.50      -514.6923   2.0000                                                             
     2  0  0.50       -23.9615   2.0000                                                             
     2  1  0.50        -9.0305   4.0000                                                             
     3  2  1.50        -9.5241   0.0000                                                             
   Description                                                                                      
     l       E           TYP  RCUT    TYP  RCUT                                                     
     0    -23.9615319     23  1.100                                                                 
     0    -25.3221145     23  1.100                                                                 
     1     -9.0304911     23  1.100                                                                 
     1     -5.4802209     23  1.100                                                                 
     2     -9.5240782      7  1.100                                                                 
  local pseudopotential read in
  partial core-charges read in
  partial kinetic energy density read in
  atomic valenz-charges read in
  non local Contribution for L=            0  read in
    real space projection operators read in
  non local Contribution for L=            0  read in
    real space projection operators read in
  non local Contribution for L=            1  read in
    real space projection operators read in
  non local Contribution for L=            1  read in
    real space projection operators read in
    PAW grid and wavefunctions read in
 
   number of l-projection  operators is LMAX  =            4
   number of lm-projection operators is LMMAX =            8
 
 POTCAR:    PAW_PBE H_h 06Feb2004                 
   VRHFIN =H: ultrasoft test                                                                        
   LEXCH  = PE                                                                                      
   EATOM  =    12.4884 eV,    0.9179 Ry                                                             
                                                                                                    
   TITEL  = PAW_PBE H_h 06Feb2004                                                                   
   LULTRA =        F    use ultrasoft PP ?                                                          
   IUNSCR =        0    unscreen: 0-lin 1-nonlin 2-no                                               
   RPACOR =    0.000    partial core radius                                                         
   POMASS =    1.000; ZVAL   =    1.000    mass and valenz                                          
   RCORE  =    0.800    outmost cutoff radius                                                       
   RWIGS  =    0.700; RWIGS  =    0.370    wigner-seitz radius (au A)                               
   ENMAX  =  700.000; ENMIN  =  350.000 eV                                                          
   RCLOC  =    0.701    cutoff for local pot                                                        
   LCOR   =        T    correct aug charges                                                         
   LPAW   =        T    paw PP                                                                      
   EAUG   = 1000.000                                                                                
   RMAX   =    0.819    core radius for proj-oper                                                   
   RAUG   =    1.000    factor for augmentation sphere                                              
   RDEP   =    0.817    radius for radial grids                                                     
   RDEPT  =    0.817    core radius for aug-charge                                                  
                                                                                                    
   Atomic configuration                                                                             
    2 entries                                                                                       
     n  l   j            E        occ.                                                              
     1  0  0.50        -6.4927   1.0000                                                             
     2  1  0.50        -3.4015   0.0000                                                             
   Description                                                                                      
     l       E           TYP  RCUT    TYP  RCUT                                                     
     0     -6.4927493     23  0.800                                                                 
     0      6.8029130     23  0.800                                                                 
     1     -6.8029130     23  0.800                                                                 
  local pseudopotential read in
  atomic valenz-charges read in
  non local Contribution for L=            0  read in
    real space projection operators read in
  non local Contribution for L=            0  read in
    real space projection operators read in
  non local Contribution for L=            1  read in
    real space projection operators read in
    PAW grid and wavefunctions read in
 
   number of l-projection  operators is LMAX  =            3
   number of lm-projection operators is LMMAX =            5
 
 Optimization of the real space projectors (new method)

 maximal supplied QI-value         = 16.25
 optimisation between [QCUT,QGAM] = [ 14.46, 28.93] = [ 58.58,234.33] Ry 
 Optimized for a Real-space Cutoff    1.35 Angstroem

   l    n(q)    QCUT    max X(q) W(low)/X(q) W(high)/X(q)  e(spline) 
   2     11    14.464     4.610    0.56E-04    0.10E-03    0.52E-06
   2     11    14.464     8.522    0.88E-04    0.16E-03    0.84E-06
   0     12    14.464    51.609    0.44E-04    0.29E-04    0.63E-06
   0     12    14.464    27.747    0.38E-04    0.27E-04    0.60E-06
   1     11    14.464    20.408    0.64E-04    0.66E-04    0.14E-06
   1     11    14.464    13.425    0.56E-04    0.59E-04    0.13E-06
 Optimization of the real space projectors (new method)

 maximal supplied QI-value         = 34.20
 optimisation between [QCUT,QGAM] = [ 14.37, 28.73] = [ 57.79,231.16] Ry 
 Optimized for a Real-space Cutoff    0.98 Angstroem

   l    n(q)    QCUT    max X(q) W(low)/X(q) W(high)/X(q)  e(spline) 
   0      8    14.366   280.207    0.54E-04    0.14E-03    0.22E-06
   0      8    14.366   228.978    0.55E-04    0.14E-03    0.22E-06
   1      8    14.366    86.127    0.24E-03    0.25E-03    0.26E-06
   1      8    14.366    65.368    0.24E-03    0.24E-03    0.26E-06
 Optimization of the real space projectors (new method)

 maximal supplied QI-value         = 47.24
 optimisation between [QCUT,QGAM] = [ 14.17, 28.82] = [ 56.25,232.56] Ry 
 Optimized for a Real-space Cutoff    0.95 Angstroem

   l    n(q)    QCUT    max X(q) W(low)/X(q) W(high)/X(q)  e(spline) 
   0      8    14.173    34.671    0.25E-03    0.45E-03    0.25E-06
   0      8    14.173    17.046    0.24E-03    0.43E-03    0.25E-06
   1      8    14.173     1.978    0.58E-04    0.22E-03    0.31E-06
 -----------------------------------------------------------------------------
|                                                                             |
|               ----> ADVICE to this user running VASP <----                  |
|                                                                             |
|     You enforced a specific xc type in the INCAR file but a different       |
|     type was found in the POTCAR file.                                      |
|     I HOPE YOU KNOW WHAT YOU ARE DOING!                                     |
|                                                                             |
 -----------------------------------------------------------------------------

  PAW_PBE Cu 22Jun2005                  :
 energy of atom  1       EATOM=-1390.9808
 kinetic energy error for atom=    0.0007 (will be added to EATOM!!)
  PAW_PBE O_h 06Feb2004                 :
 energy of atom  2       EATOM= -432.3788
 kinetic energy error for atom=    0.0500 (will be added to EATOM!!)
  PAW_PBE H_h 06Feb2004                 :
 energy of atom  3       EATOM=  -12.4884
 kinetic energy error for atom=    0.0035 (will be added to EATOM!!)
 
 
 POSCAR: Cu O  H
  positions in cartesian coordinates
  No initial velocities read in


 exchange-correlation table for R2SCAN
   RHO(1)=    0.500       N(1)  =     2000
   RHO(2)=  100.500       N(2)  =     4000
 


--------------------------------------------------------------------------------------------------------


 ion  position               nearest neighbor table
   1  0.696  0.121  0.330- 104 2.10  18 2.32   8 2.49  32 2.51   5 2.51  15 2.56  17 2.56  16 2.56
                             2 2.63   4 2.67
   2  0.955  0.127  0.328-   6 2.40  19 2.43   3 2.49  13 2.50   5 2.50  29 2.60   1 2.63  16 2.63
                            18 2.66
   3  0.200  0.117  0.325-   4 2.37   2 2.49   6 2.57  30 2.57  14 2.58  20 2.59  13 2.63   7 2.66
                            19 2.68
   4  0.433  0.123  0.333-   3 2.37  20 2.43  31 2.45  17 2.47  15 2.57   8 2.58   7 2.58  14 2.64
                             1 2.67
   5  0.823  0.367  0.326-  21 2.49   2 2.50   6 2.51   1 2.51   9 2.53   8 2.54  18 2.56  12 2.65
                            22 2.67
   6  0.070  0.367  0.330-   2 2.40  19 2.45  10 2.46  23 2.50   5 2.51  22 2.51   7 2.54   3 2.57
                             9 2.63
   7  0.319  0.385  0.335-  23 2.38  24 2.40  11 2.42  10 2.45  20 2.46   6 2.54   4 2.58   8 2.60
                             3 2.66
   8  0.573  0.366  0.324-   1 2.49  11 2.53   5 2.54  17 2.55  21 2.56   4 2.58  12 2.59   7 2.60
                            24 2.65
   9  0.936  0.624  0.327-  16 2.44  13 2.47  12 2.49  10 2.50   5 2.53  25 2.55  22 2.57  26 2.58
                             6 2.63
  10  0.183  0.615  0.331-  23 2.41   7 2.45   6 2.46  26 2.46  14 2.50   9 2.50  27 2.53  13 2.56
                            11 2.69
  11  0.448  0.616  0.328-   7 2.42  12 2.46  28 2.47  24 2.47  14 2.50   8 2.53  27 2.55  15 2.55
                            10 2.69
  12  0.691  0.628  0.325-  11 2.46   9 2.49  15 2.51  16 2.51  28 2.53  25 2.58  21 2.58   8 2.59
                             5 2.65
  13  0.057  0.868  0.331-  16 2.37  29 2.37  30 2.45  26 2.45   9 2.47   2 2.50  10 2.56  14 2.62
                             3 2.63
  14  0.315  0.855  0.329-  27 2.43  30 2.48  11 2.50  10 2.50  15 2.54   3 2.58  13 2.62  31 2.63
                             4 2.64
  15  0.565  0.873  0.331-  28 2.40  32 2.48  12 2.51  14 2.54  11 2.55   1 2.56  31 2.56   4 2.57
                            16 2.62
  16  0.823  0.869  0.328-  13 2.37   9 2.44  29 2.48  12 2.51  25 2.52   1 2.56  15 2.62   2 2.63
                            32 2.68
  17  0.563  0.217  0.397-  18 2.39  24 2.43  21 2.47   4 2.47  37 2.52  40 2.53   8 2.55  32 2.56
                            20 2.56   1 2.56  31 2.57  33 2.59
  18  0.799  0.200  0.395-   1 2.32  17 2.39  21 2.41  32 2.41  37 2.54  34 2.55   5 2.56   2 2.66
                            19 2.67  29 2.67  38 2.68  22 2.78
  19  0.062  0.205  0.396-   2 2.43   6 2.45  22 2.52  20 2.53  35 2.53  29 2.55  38 2.56  39 2.57
                            30 2.60  23 2.60  18 2.67   3 2.68
  20  0.311  0.207  0.398-   4 2.43   7 2.46  31 2.49  36 2.51  39 2.51  40 2.53  19 2.53  23 2.54
                            17 2.56   3 2.59  30 2.59  24 2.65
  21  0.700  0.449  0.393-  18 2.41  17 2.47   5 2.49  25 2.52  24 2.53   8 2.56  22 2.56  12 2.58
                            37 2.59  41 2.59  28 2.63  44 2.72
  22  0.952  0.462  0.398-  23 2.42  26 2.43  42 2.43   6 2.51  19 2.52  38 2.54  25 2.56  21 2.56
                             9 2.57  41 2.58   5 2.67  18 2.78
  23  0.191  0.461  0.397-   7 2.38  10 2.41  22 2.42  27 2.48   6 2.50  26 2.51  43 2.52  20 2.54
                            42 2.55  39 2.55  19 2.60  24 2.65
  24  0.451  0.462  0.397-   7 2.40  17 2.43  44 2.46  28 2.46  11 2.47  27 2.50  21 2.53  40 2.56
                            43 2.60  23 2.65   8 2.65  20 2.65
  25  0.813  0.705  0.397-  28 2.48  29 2.51  16 2.52  41 2.52  21 2.52  45 2.54  26 2.55  48 2.55
                             9 2.55  22 2.56  12 2.58  32 2.60
  26  0.064  0.707  0.397-  22 2.43  29 2.43  13 2.45  10 2.46  30 2.47  23 2.51  42 2.53  46 2.53
                            25 2.55  45 2.55   9 2.58  27 2.59
  27  0.319  0.702  0.396-  14 2.43  23 2.48  24 2.50  43 2.52  28 2.52  30 2.53  10 2.53  47 2.53
                            11 2.55  26 2.59  31 2.59  46 2.60
  28  0.568  0.707  0.394-  15 2.40  24 2.46  11 2.47  25 2.48  32 2.51  27 2.52  12 2.53  48 2.57
                            44 2.59  31 2.62  47 2.63  21 2.63
  29  0.945  0.947  0.396-  13 2.37  26 2.43  30 2.48  16 2.48  45 2.51  25 2.51  19 2.55  35 2.56
                             2 2.60  34 2.64  32 2.67  18 2.67
  30  0.190  0.948  0.394-  13 2.45  26 2.47  29 2.48  14 2.48  31 2.51  27 2.53  46 2.55   3 2.57
                            20 2.59  19 2.60  36 2.62  35 2.64
  31  0.437  0.963  0.399-   4 2.45  36 2.46  33 2.47  20 2.49  32 2.49  47 2.50  30 2.51  15 2.56
                            17 2.57  27 2.59  28 2.62  14 2.63
  32  0.682  0.960  0.399-  18 2.41  33 2.46  15 2.48  31 2.49  48 2.51  28 2.51   1 2.51  34 2.52
                            17 2.56  25 2.60  29 2.67  16 2.68
  33  0.562  0.042  0.466-  32 2.46  31 2.47  47 2.54  36 2.54  48 2.54  52 2.54  40 2.54  63 2.54
                            49 2.54  37 2.54  34 2.54  17 2.59
  34  0.813  0.042  0.466-  32 2.52  45 2.54  35 2.54  48 2.54  50 2.54  38 2.54  64 2.54  49 2.54
                            37 2.54  33 2.54  18 2.55  29 2.64
  35  0.063  0.042  0.466-  19 2.53  34 2.54  46 2.54  45 2.54  61 2.54  36 2.54  51 2.54  39 2.54
                            50 2.54  38 2.54  29 2.56  30 2.64
  36  0.313  0.042  0.466-  31 2.46  20 2.51  33 2.54  47 2.54  46 2.54  62 2.54  35 2.54  52 2.54
                            51 2.54  40 2.54  39 2.54  30 2.62
  37  0.688  0.292  0.466-  17 2.52  38 2.54  40 2.54  41 2.54  44 2.54  53 2.54  56 2.54  49 2.54
                            34 2.54  33 2.54  18 2.54  21 2.59
  38  0.937  0.292  0.466-  41 2.54  37 2.54  42 2.54  53 2.54  34 2.54  39 2.54  54 2.54  50 2.54
                            35 2.54  22 2.54  19 2.56  18 2.68
  39  0.187  0.292  0.466-  20 2.51  42 2.54  43 2.54  54 2.54  55 2.54  38 2.54  35 2.54  51 2.54
                            36 2.54  40 2.54  23 2.55  19 2.57
  40  0.438  0.292  0.466-  17 2.53  20 2.53  44 2.54  37 2.54  43 2.54  56 2.54  33 2.54  55 2.54
                            52 2.54  36 2.54  39 2.54  24 2.56
  41  0.813  0.542  0.466-  25 2.52  38 2.54  37 2.54  42 2.54  45 2.54  57 2.54  48 2.54  53 2.54
                            60 2.54  44 2.54  22 2.58  21 2.59
  42  0.063  0.542  0.466-  22 2.43  26 2.53  39 2.54  38 2.54  41 2.54  43 2.54  46 2.54  58 2.54
                            54 2.54  45 2.54  57 2.54  23 2.55
  43  0.313  0.542  0.466-  23 2.52  27 2.52  44 2.54  40 2.54  39 2.54  42 2.54  47 2.54  46 2.54
                            55 2.54  59 2.54  58 2.54  24 2.60
  44  0.562  0.542  0.466-  24 2.46  40 2.54  43 2.54  37 2.54  47 2.54  59 2.54  48 2.54  56 2.54
                            60 2.54  41 2.54  28 2.59  21 2.72
  45  0.937  0.792  0.466-  29 2.51  34 2.54  48 2.54  35 2.54  41 2.54  64 2.54  46 2.54  57 2.54
                            42 2.54  61 2.54  25 2.54  26 2.55
  46  0.187  0.792  0.466-  26 2.53  35 2.54  36 2.54  42 2.54  45 2.54  61 2.54  43 2.54  58 2.54
                            62 2.54  47 2.54  30 2.55  27 2.60
  47  0.438  0.792  0.466-  31 2.50  27 2.53  33 2.54  48 2.54  36 2.54  44 2.54  63 2.54  43 2.54
                            59 2.54  62 2.54  46 2.54  28 2.63
  48  0.688  0.792  0.466-  32 2.51  45 2.54  47 2.54  34 2.54  33 2.54  41 2.54  44 2.54  60 2.54
                            64 2.54  63 2.54  25 2.55  28 2.57
  49  0.688  0.125  0.534-  80 2.44  50 2.54  52 2.54  53 2.54  56 2.54  64 2.54  63 2.54  37 2.54
                            34 2.54  33 2.54  65 2.57  66 2.61
  50  0.937  0.125  0.534-  66 2.49  77 2.50  53 2.54  64 2.54  49 2.54  54 2.54  61 2.54  34 2.54
                            51 2.54  38 2.54  35 2.54  67 2.68
  51  0.187  0.125  0.534-  54 2.54  55 2.54  61 2.54  62 2.54  50 2.54  35 2.54  39 2.54  36 2.54
                            52 2.54  68 2.56  67 2.61  78 2.67
  52  0.438  0.125  0.534-  68 2.50  65 2.51  56 2.54  63 2.54  49 2.54  55 2.54  62 2.54  33 2.54
                            40 2.54  36 2.54  51 2.54  79 2.64
  53  0.813  0.375  0.534-  66 2.49  50 2.54  49 2.54  54 2.54  38 2.54  57 2.54  37 2.54  60 2.54
                            41 2.54  56 2.54  70 2.59  69 2.61
  54  0.063  0.375  0.534-  71 2.50  51 2.54  50 2.54  53 2.54  39 2.54  55 2.54  58 2.54  38 2.54
                            42 2.54  57 2.54  70 2.56  67 2.64
  55  0.313  0.375  0.534-  72 2.44  71 2.50  68 2.53  56 2.54  52 2.54  51 2.54  54 2.54  40 2.54
                            39 2.54  59 2.54  58 2.54  43 2.54
  56  0.562  0.375  0.534-  65 2.44  72 2.44  52 2.54  55 2.54  49 2.54  40 2.54  59 2.54  37 2.54
                            60 2.54  44 2.54  53 2.54  69 2.59
  57  0.937  0.625  0.534-  74 2.53  60 2.54  53 2.54  64 2.54  41 2.54  58 2.54  45 2.54  54 2.54
                            61 2.54  42 2.54  73 2.54  70 2.55
  58  0.187  0.625  0.534-  74 2.48  54 2.54  61 2.54  57 2.54  42 2.54  55 2.54  62 2.54  46 2.54
                            43 2.54  59 2.54  71 2.57  75 2.59
  59  0.438  0.625  0.534-  72 2.40  76 2.44  60 2.54  56 2.54  63 2.54  44 2.54  55 2.54  62 2.54
                            47 2.54  43 2.54  58 2.54  75 2.66
  60  0.688  0.625  0.534-  76 2.42  57 2.54  59 2.54  53 2.54  56 2.54  64 2.54  63 2.54  48 2.54
                            41 2.54  44 2.54  69 2.58  73 2.58
  61  0.063  0.875  0.534-  77 2.35  64 2.54  51 2.54  50 2.54  35 2.54  62 2.54  58 2.54  46 2.54
                            57 2.54  45 2.54  74 2.57  78 2.76
  62  0.313  0.875  0.534-  63 2.54  52 2.54  51 2.54  36 2.54  61 2.54  59 2.54  58 2.54  47 2.54
                            46 2.54  78 2.57  75 2.60  79 2.74
  63  0.562  0.875  0.534-  76 2.45  52 2.54  62 2.54  59 2.54  49 2.54  47 2.54  33 2.54  60 2.54
                            48 2.54  64 2.54  80 2.57  79 2.60
  64  0.813  0.875  0.534-  73 2.46  77 2.50  80 2.53  50 2.54  61 2.54  57 2.54  49 2.54  45 2.54
                            34 2.54  60 2.54  48 2.54  63 2.54
  65  0.557  0.221  0.602-  88 2.42  68 2.42  56 2.44  72 2.46  69 2.48  79 2.51  52 2.51  49 2.57
                            80 2.57  85 2.60  81 2.66  66 2.72
  66  0.825  0.217  0.603-  70 2.46  85 2.48  67 2.48  50 2.49  53 2.49  80 2.54  82 2.54  69 2.58
                            86 2.58  49 2.61  77 2.68  65 2.72
  67  0.069  0.208  0.607-  71 2.43  83 2.46  87 2.47  66 2.48  68 2.53  86 2.54  70 2.58  77 2.58
                            78 2.61  51 2.61  54 2.64  50 2.68
  68  0.318  0.209  0.603-  65 2.42  78 2.47  71 2.49  52 2.50  88 2.52  55 2.53  67 2.53  79 2.55
                            72 2.55  51 2.56  87 2.56  84 2.70
  69  0.685  0.462  0.605-  85 2.34  92 2.39  76 2.48  65 2.48  72 2.52  66 2.58  60 2.58  56 2.59
                            70 2.60  53 2.61  73 2.64  89 2.65
  70  0.941  0.462  0.604-  66 2.46  74 2.46  89 2.49  71 2.50  90 2.52  57 2.55  54 2.56  67 2.58
                            53 2.59  69 2.60  73 2.60  86 2.67
  71  0.187  0.449  0.602-  67 2.43  68 2.49  54 2.50  70 2.50  55 2.50  91 2.50  74 2.52  90 2.53
                            72 2.55  58 2.57  75 2.60  87 2.61
  72  0.437  0.464  0.599-  59 2.40  91 2.43  55 2.44  56 2.44  65 2.46  76 2.48  69 2.52  71 2.55
                            68 2.55  75 2.56  88 2.64
  73  0.817  0.721  0.603-  93 2.40  77 2.42  96 2.43  64 2.46  57 2.54  74 2.54  80 2.55  76 2.57
                            60 2.58  70 2.60  69 2.64  89 2.68
  74  0.067  0.701  0.603-  75 2.41  93 2.43  70 2.46  58 2.48  77 2.48  94 2.49  71 2.52  57 2.53
                            73 2.54  61 2.57  90 2.57  78 2.68
  75  0.305  0.711  0.606-  78 2.39  74 2.41  94 2.47  91 2.50  72 2.56  58 2.59  71 2.60  62 2.60
                            95 2.63  76 2.64  59 2.66  79 2.67
  76  0.564  0.706  0.599-  60 2.42  59 2.44  63 2.45  69 2.48  72 2.48  79 2.55  73 2.57  96 2.60
                            95 2.64  75 2.64  92 2.64  80 2.67
  77  0.951  0.949  0.599-  61 2.35  73 2.42  74 2.48  83 2.49  64 2.50  50 2.50  82 2.51  67 2.58
                            93 2.60  78 2.62  80 2.64  66 2.68
  78  0.208  0.958  0.608-  75 2.39  83 2.44  84 2.47  79 2.47  68 2.47  94 2.49  62 2.57  67 2.61
                            77 2.62  51 2.67  74 2.68  61 2.76
  79  0.452  0.963  0.608-  80 2.44  81 2.47  78 2.47  65 2.51  68 2.55  76 2.55  95 2.55  84 2.56
                            63 2.60  52 2.64  75 2.67  62 2.74
  80  0.691  0.973  0.602-  79 2.44  49 2.44  82 2.50  64 2.53  66 2.54  81 2.55  73 2.55  96 2.55
                            63 2.57  65 2.57  77 2.64  76 2.67
  81  0.576  0.048  0.674-  79 2.47  88 2.50  96 2.54  80 2.55  82 2.60  84 2.60  85 2.62  95 2.63
                            65 2.66
  82  0.831  0.033  0.668-  83 2.34  86 2.49  80 2.50  77 2.51  96 2.52  66 2.54  93 2.56  81 2.60
                            85 2.75
  83  0.062  0.026  0.670-  82 2.34  94 2.41  78 2.44  67 2.46  77 2.49  93 2.54  86 2.59  84 2.62
                            87 2.63
  84  0.319  0.036  0.677-  78 2.47  87 2.49  79 2.56  88 2.59  95 2.59  81 2.60  83 2.62  94 2.64
                            68 2.70
  85  0.701  0.308  0.668-  69 2.34  92 2.40  89 2.45  86 2.46  66 2.48  88 2.58  65 2.60  81 2.62
                            82 2.75
  86  0.942  0.285  0.676-  85 2.46  82 2.49  89 2.52  67 2.54  90 2.55  87 2.58  66 2.58  83 2.59
                            70 2.67
  87  0.196  0.282  0.674-  67 2.47  91 2.49  84 2.49  90 2.55  88 2.55  68 2.56  86 2.58  71 2.61
                            83 2.63
  88  0.447  0.291  0.670-  91 2.37  65 2.42  81 2.50  68 2.52  87 2.55  85 2.58  84 2.59  72 2.64
                            92 2.67
  89  0.831  0.542  0.674-  93 2.33  90 2.43  85 2.45  92 2.46  70 2.49  86 2.52  96 2.61  69 2.65
                            73 2.68
  90  0.070  0.533  0.672-  89 2.43  93 2.46  94 2.46  70 2.52  71 2.53  86 2.55  87 2.55  74 2.57
                            91 2.59
  91  0.326  0.521  0.668-  88 2.37  72 2.43  87 2.49  75 2.50  71 2.50  90 2.59  95 2.65  92 2.68
                            94 2.77
  92  0.588  0.548  0.673-  69 2.39  85 2.40  96 2.41  89 2.46  95 2.50  76 2.64  88 2.67  91 2.68

  93  0.944  0.772  0.669-  89 2.33  94 2.37  73 2.40  74 2.43  90 2.46  96 2.53  83 2.54  82 2.56
                            77 2.60
  94  0.176  0.786  0.673-  93 2.37  83 2.41  90 2.46  75 2.47  78 2.49  74 2.49  84 2.64  91 2.77

  95  0.452  0.785  0.675-  96 2.46  92 2.50  79 2.55  84 2.59  81 2.63  75 2.63  76 2.64  91 2.65

  96  0.695  0.793  0.669-  92 2.41  73 2.43  95 2.46  82 2.52  93 2.53  81 2.54  80 2.55  76 2.60
                            89 2.61
  97  0.515  0.179  0.796- 148 0.96 147 1.01
  98  0.444  0.129  0.225- 150 0.97 149 0.97
  99  0.086  0.479  0.206- 152 0.97 230 0.97
 100  0.203  0.461  0.873- 153 0.95 154 0.97
 101  0.985  0.715  0.808- 156 0.97 155 1.03
 102  0.332  0.729  0.134- 171 0.99 158 0.99
 103  0.948  0.696  0.253- 175 0.97 160 0.98
 104  0.701  0.108  0.260- 162 0.96 157 1.03   1 2.10
 105  0.555  0.505  0.191- 163 1.00 188 1.01
 106  0.518  0.227  0.129- 165 0.96 164 0.96
 107  0.164  0.835  0.210- 167 0.96 161 0.98
 108  0.611  0.065  0.964- 169 0.93 170 0.95
 109  0.414  0.796  0.239- 159 0.95 172 0.96
 110  0.783  0.367  0.200- 173 0.94 174 0.98
 111  0.814  0.078  0.865- 176 0.98 151 0.99
 112  0.886  0.128  0.151- 177 0.95 184 0.99
 113  0.354  0.449  0.232- 179 0.97 178 0.99
 114  0.026  0.651  0.123- 181 0.97 180 0.99
 115  0.131  0.325  0.785- 183 0.97 182 0.98
 116  0.229  0.061  0.928- 185 0.98 166 0.99
 117  0.202  0.613  0.051- 186 0.93 187 1.00
 118  0.807  0.465  0.105- 190 1.01 189 1.04
 119  0.761  0.696  0.998- 191 0.96 168 0.96
 120  0.029  0.380  0.952- 192 0.96 196 0.98
 121  0.690  0.802  0.855- 195 0.98 193 1.01
 122  0.881  0.956  0.773- 197 0.95 194 0.96
 123  0.468  0.042  0.889- 199 0.96 198 1.01
 124  0.072  0.125  0.863- 200 0.94 203 0.99
 125  0.271  0.051  0.752- 201 0.97 222 1.06
 126  0.232  0.113  0.016- 204 0.97 202 0.97
 127  0.092  0.153  0.219- 206 0.95 205 1.01
 128  0.993  0.167  0.068- 209 0.96 207 1.01
 129  0.139  0.783  0.903- 208 0.99 210 1.00
 130  0.036  0.665  0.978- 212 1.00 213 1.01
 131  0.178  0.772  0.751- 218 1.03 214 1.05
 132  0.475  0.478  0.897- 217 0.94 215 0.98
 133  0.881  0.409  0.786- 219 0.98 216 1.00
 134  0.607  0.877  0.774- 221 0.93 220 1.02
 135  0.378  0.360  0.056- 226 1.01 236 1.07
 136  0.325  0.826  0.018- 223 0.99 225 1.00
 137  0.502  0.763  0.950- 227 0.95 224 0.97
 138  0.643  0.397  0.034- 228 0.99 229 1.01
 139  0.739  0.504  0.859- 231 0.96 233 1.02
 140  0.539  0.922  0.097- 234 0.97 232 1.00
 141  0.605  0.457  0.765- 211 0.94 235 0.96
 142  0.757  0.992  0.049- 238 0.94 237 1.00
 143  0.333  0.538  0.776- 240 0.98 239 0.99
 144  0.770  0.290  0.930- 242 0.95 241 1.07
 145  0.735  0.829  0.149- 243 0.95 244 0.98
 146  0.701  0.809  0.232- 245 0.95 246 1.00
 147  0.546  0.077  0.786-  97 1.01
 148  0.524  0.160  0.827-  97 0.96
 149  0.525  0.152  0.241-  98 0.97
 150  0.377  0.203  0.233-  98 0.97
 151  0.791  0.093  0.834- 111 0.99
 152  0.047  0.522  0.232-  99 0.97
 153  0.207  0.415  0.844- 100 0.95
 154  0.188  0.567  0.865- 100 0.97
 155  0.936  0.801  0.792- 101 1.03
 156  0.954  0.616  0.798- 101 0.97
 157  0.695  0.995  0.251- 104 1.03
 158  0.286  0.663  0.112- 102 0.99
 159  0.421  0.765  0.209- 109 0.95
 160  0.857  0.717  0.244- 103 0.98
 161  0.168  0.946  0.207- 107 0.98
 162  0.722  0.171  0.235- 104 0.96
 163  0.476  0.493  0.210- 105 1.00
 164  0.497  0.198  0.159- 106 0.96
 165  0.532  0.128  0.116- 106 0.96
 166  0.310  0.074  0.911- 116 0.99
 167  0.227  0.817  0.233- 107 0.96
 168  0.723  0.599  0.005- 119 0.96
 169  0.634  0.005  0.988- 108 0.93
 170  0.683  0.130  0.957- 108 0.95
 171  0.268  0.762  0.157- 102 0.99
 172  0.432  0.903  0.236- 109 0.96
 173  0.835  0.441  0.213- 110 0.94
 174  0.691  0.401  0.199- 110 0.98
 175  0.998  0.771  0.236- 103 0.97
 176  0.910  0.086  0.865- 111 0.98
 177  0.864  0.230  0.159- 112 0.95
 178  0.338  0.463  0.265- 113 0.99
 179  0.272  0.480  0.218- 113 0.97
 180  0.086  0.652  0.097- 114 0.99
 181  0.059  0.587  0.147- 114 0.97
 182  0.154  0.233  0.768- 115 0.98
 183  0.041  0.352  0.778- 115 0.97
 184  0.916  0.151  0.121- 112 0.99
 185  0.253  0.094  0.958- 116 0.98
 186  0.249  0.521  0.052- 117 0.93
 187  0.259  0.697  0.039- 117 1.00
 188  0.516  0.527  0.161- 105 1.01
 189  0.879  0.549  0.108- 118 1.04
 190  0.785  0.428  0.136- 118 1.01
 191  0.852  0.678  0.990- 119 0.96
 192  0.017  0.489  0.955- 120 0.96
 193  0.750  0.889  0.864- 121 1.01
 194  0.924  0.999  0.747- 122 0.96
 195  0.732  0.701  0.856- 121 0.98
 196  0.071  0.360  0.923- 120 0.98
 197  0.790  0.941  0.768- 122 0.95
 198  0.525  0.070  0.915- 123 1.01
 199  0.480  0.934  0.891- 123 0.96
 200  0.096  0.207  0.845- 124 0.94
 201  0.351  0.074  0.768- 125 0.97
 202  0.159  0.128  0.037- 126 0.97
 203  0.123  0.120  0.891- 124 0.99
 204  0.308  0.161  0.029- 126 0.97
 205  0.021  0.123  0.197- 127 1.01
 206  0.060  0.177  0.248- 127 0.95
 207  0.915  0.105  0.056- 128 1.01
 208  0.181  0.882  0.909- 129 0.99
 209  0.966  0.266  0.058- 128 0.96
 210  0.075  0.810  0.879- 129 1.00
 211  0.577  0.359  0.773- 141 0.94
 212  0.108  0.651  0.000- 130 1.00
 213  0.070  0.717  0.951- 130 1.01
 214  0.104  0.752  0.775- 131 1.05
 215  0.383  0.460  0.889- 132 0.98
 216  0.842  0.435  0.815- 133 1.00
 217  0.511  0.388  0.908- 132 0.94
 218  0.236  0.675  0.753- 131 1.03
 219  0.807  0.436  0.766- 133 0.98
 220  0.632  0.841  0.805- 134 1.02
 221  0.574  0.791  0.760- 134 0.93
 222  0.240  0.938  0.756- 125 1.06
 223  0.371  0.807  0.990- 136 0.99
 224  0.473  0.669  0.936- 137 0.97
 225  0.275  0.924  0.015- 136 1.00
 226  0.453  0.419  0.042- 135 1.01
 227  0.576  0.731  0.967- 137 0.95
 228  0.648  0.300  0.017- 138 0.99
 229  0.700  0.402  0.061- 138 1.01
 230  0.106  0.374  0.214-  99 0.97
 231  0.644  0.499  0.857- 139 0.96
 232  0.575  0.854  0.120- 140 1.00
 233  0.764  0.430  0.884- 139 1.02
 234  0.454  0.878  0.089- 140 0.97
 235  0.524  0.510  0.769- 141 0.96
 236  0.418  0.309  0.085- 135 1.07
 237  0.766  0.885  0.037- 142 1.00
 238  0.688  0.980  0.069- 142 0.94
 239  0.273  0.449  0.777- 143 0.99
 240  0.369  0.535  0.746- 143 0.98
 241  0.862  0.318  0.946- 144 1.07
 242  0.813  0.233  0.908- 144 0.95
 243  0.778  0.762  0.129- 145 0.95
 244  0.782  0.926  0.151- 145 0.98
 245  0.696  0.781  0.202- 146 0.95
 246  0.618  0.765  0.245- 146 1.00
 
  LATTYP: Found a simple orthorhombic cell.
 ALAT       =     8.7818242399
 B/A-ratio  =     1.1547005384
 C/A-ratio  =     3.4310783653
  
  Lattice vectors:
  
 A1 = (   0.0000000000,  -8.7818242399,   0.0000000000)
 A2 = (  10.1403771778,   0.0000000000,   0.0000000000)
 A3 = (   0.0000000000,   0.0000000000,  30.1311271579)


Analysis of symmetry for initial positions (statically):
=====================================================================
 Subroutine PRICEL returns:
 Original cell was already a primitive cell.
 

 Routine SETGRP: Setting up the symmetry group for a 
 simple orthorhombic supercell.


 Subroutine GETGRP returns: Found  1 space group operations
 (whereof  1 operations were pure point group operations)
 out of a pool of  8 trial point group operations.


The static configuration has the point symmetry C_1 .


Analysis of symmetry for dynamics (positions and initial velocities):
=====================================================================
 Subroutine PRICEL returns:
 Original cell was already a primitive cell.
 

 Routine SETGRP: Setting up the symmetry group for a 
 simple orthorhombic supercell.


 Subroutine GETGRP returns: Found  1 space group operations
 (whereof  1 operations were pure point group operations)
 out of a pool of  8 trial point group operations.


The dynamic configuration has the point symmetry C_1 .


 Subroutine INISYM returns: Found  1 space group operations
 (whereof  1 operations are pure point group operations),
 and found     1 'primitive' translations


----------------------------------------------------------------------------------------

                                     Primitive cell                                     

  volume of cell :    2683.2073

  direct lattice vectors                    reciprocal lattice vectors
    10.140377178  0.000000000  0.000000000     0.098615661  0.000000000  0.000000000
     0.000000000  8.781824240  0.000000000     0.000000000  0.113871557  0.000000000
     0.000000000  0.000000000 30.131127158     0.000000000  0.000000000  0.033188271

  length of vectors
    10.140377178  8.781824240 30.131127158     0.098615661  0.113871557  0.033188271

  position of ions in fractional coordinates (direct lattice)
     0.696401118  0.121340392  0.329964092
     0.955393456  0.127139871  0.327504177
     0.200214446  0.117048573  0.324932750
     0.432942476  0.122763787  0.332831890
     0.822896412  0.366997780  0.325751172
     0.069824622  0.366787118  0.329997280
     0.319155781  0.385384620  0.334630694
     0.572899794  0.366199540  0.324161122
     0.936393177  0.623927313  0.326992746
     0.182843297  0.614879079  0.330676976
     0.448435982  0.615632909  0.328388312
     0.691038398  0.627887766  0.325267288
     0.057190969  0.868341223  0.330510702
     0.315310757  0.854921460  0.329038139
     0.565128880  0.872818653  0.331090501
     0.823483176  0.869055198  0.328220048
     0.563252224  0.216808028  0.396646297
     0.798589624  0.199512078  0.394913869
     0.061642973  0.204693234  0.396244719
     0.311037740  0.206972942  0.397638626
     0.700347716  0.449379297  0.393217948
     0.952116458  0.462227424  0.397744828
     0.190598433  0.461136535  0.396775731
     0.451459538  0.462049785  0.396981498
     0.812989483  0.705270321  0.396822194
     0.064326404  0.706770009  0.396812238
     0.319252425  0.701873532  0.396374153
     0.568111018  0.707222079  0.394445914
     0.945386925  0.947033301  0.395720344
     0.189510702  0.947755247  0.394299886
     0.436505460  0.963479770  0.399397604
     0.682443057  0.960150166  0.398577854
     0.562499787  0.041666628  0.465651349
     0.812500349  0.041666628  0.465651349
     0.062500042  0.041666628  0.465651349
     0.312500210  0.041666628  0.465651349
     0.687500068  0.291667190  0.465651349
     0.937499645  0.291667190  0.465651349
     0.187499929  0.291667190  0.465651349
     0.437500492  0.291667190  0.465651349
     0.812500349  0.541666500  0.465651349
     0.062500042  0.541666500  0.465651349
     0.312500210  0.541666500  0.465651349
     0.562499787  0.541666500  0.465651349
     0.937499645  0.791666949  0.465651349
     0.187499929  0.791666949  0.465651349
     0.437500492  0.791666949  0.465651349
     0.687500068  0.791666949  0.465651349
     0.687500068  0.125000224  0.534347750
     0.937499645  0.125000224  0.534347750
     0.187499929  0.125000224  0.534347750
     0.437500492  0.125000224  0.534347750
     0.812500349  0.374999534  0.534347750
     0.062500042  0.374999534  0.534347750
     0.312500210  0.374999534  0.534347750
     0.562499787  0.374999534  0.534347750
     0.937499645  0.624999983  0.534347750
     0.187499929  0.624999983  0.534347750
     0.437500492  0.624999983  0.534347750
     0.687500068  0.624999983  0.534347750
     0.062500042  0.875000432  0.534347750
     0.312500210  0.875000432  0.534347750
     0.562499787  0.875000432  0.534347750
     0.812500349  0.875000432  0.534347750
     0.557125233  0.220959785  0.601749809
     0.824825335  0.216502853  0.602748776
     0.069103544  0.208252858  0.607371902
     0.318253448  0.208599028  0.602818471
     0.685147098  0.461565831  0.605430388
     0.941060656  0.461839122  0.604298668
     0.187021643  0.448796274  0.602453400
     0.437429488  0.464422868  0.598636749
     0.817254610  0.721000538  0.602665805
     0.067273928  0.700623223  0.602642573
     0.304859469  0.710936570  0.606273370
     0.564440543  0.705909140  0.599005139
     0.951012949  0.949122844  0.599287239
     0.207793060  0.958264453  0.607965972
     0.451526597  0.963496851  0.607916189
     0.691175474  0.972507507  0.602035228
     0.575780358  0.047555723  0.673937616
     0.831466113  0.033293083  0.668099799
     0.062271845  0.026200251  0.669553445
     0.319374708  0.036466114  0.677239849
     0.701372333  0.307603515  0.668484783
     0.941634599  0.284970404  0.676267432
     0.196016377  0.281750116  0.674146702
     0.447244705  0.290700421  0.669988212
     0.831046997  0.541930682  0.674388976
     0.070453494  0.533352738  0.672477332
     0.325517478  0.521303988  0.667970365
     0.588463318  0.547721051  0.673240662
     0.943592120  0.771851020  0.668537884
     0.176239993  0.785649976  0.672517158
     0.452469363  0.784705980  0.674594744
     0.694734513  0.793049349  0.668700507
     0.514692887  0.179493458  0.795987481
     0.443783295  0.128514301  0.225196687
     0.086241565  0.478541802  0.205922930
     0.203192639  0.460658274  0.872884704
     0.984840093  0.714860583  0.808230634
     0.332439311  0.728838317  0.134035809
     0.947990379  0.695570742  0.253178049
     0.700603131  0.108187772  0.260339083
     0.554927090  0.505149030  0.190925483
     0.518493534  0.226582763  0.128715065
     0.164154643  0.835052012  0.209552068
     0.611351027  0.065317978  0.963983187
     0.413787370  0.796115910  0.238755423
     0.782823938  0.367334840  0.199515935
     0.813507215  0.077605288  0.865493676
     0.885977892  0.128132831  0.151100222
     0.353564758  0.448598138  0.232437040
     0.026115498  0.651016218  0.123031906
     0.131222930  0.324890356  0.784968975
     0.228912590  0.060723830  0.928216188
     0.202133507  0.613034360  0.050768429
     0.806691887  0.464812309  0.104908455
     0.761246832  0.696067222  0.997890384
     0.029069333  0.380424375  0.951852875
     0.690121272  0.801950689  0.854863473
     0.881490880  0.956258036  0.772702590
     0.467574324  0.042035116  0.888612625
     0.072029569  0.124507160  0.863216960
     0.270667447  0.051469374  0.751611444
     0.231580143  0.112971516  0.016187579
     0.092136711  0.153039957  0.219202553
     0.992556768  0.166710237  0.068157092
     0.139352805  0.782858984  0.902624713
     0.036313837  0.664618175  0.978058333
     0.177552567  0.771650606  0.751246373
     0.475447798  0.478450705  0.896899736
     0.881428752  0.408847855  0.785616146
     0.606824568  0.877390596  0.774279033
     0.377835058  0.359835259  0.056238852
     0.325040178  0.826006055  0.018431803
     0.502098680  0.763058997  0.950156954
     0.643452397  0.396776331  0.033610757
     0.738860091  0.503878224  0.858783007
     0.538799485  0.922493981  0.096537709
     0.605380835  0.456632915  0.764870158
     0.756865338  0.992162877  0.048502998
     0.332789396  0.538465571  0.775709447
     0.770394421  0.289771229  0.930141108
     0.734993370  0.829273030  0.149258273
     0.700922646  0.808829670  0.232100511
     0.546462908  0.076877649  0.785636059
     0.523785250  0.159923492  0.827157904
     0.525249693  0.152406831  0.240726474
     0.376965268  0.203458866  0.232525984
     0.790549489  0.092508114  0.833928312
     0.046616215  0.521593222  0.232243552
     0.207297023  0.415184807  0.844299646
     0.188377608  0.566509858  0.865165112
     0.935578611  0.801327812  0.792379916
     0.954123287  0.616248954  0.797822792
     0.695255204  0.995024029  0.251455246
     0.286495260  0.663210723  0.112245718
     0.420997161  0.764608789  0.208832878
     0.857256081  0.716876110  0.243740965
     0.167986848  0.946302246  0.206974999
     0.721803526  0.170644499  0.235147194
     0.476130218  0.492530923  0.210482999
     0.496706376  0.197758456  0.158656195
     0.531858915  0.127867510  0.115735796
     0.310418434  0.073758593  0.910762477
     0.227439272  0.817165068  0.232881431
     0.722517503  0.598935922  0.004569693
     0.634254514  0.005313998  0.988031408
     0.683075183  0.129536867  0.956698362
     0.268113301  0.761864485  0.156715014
     0.432480954  0.902900102  0.235961966
     0.834926537  0.441002905  0.213468616
     0.690939782  0.401301587  0.199009482
     0.997872042  0.770511891  0.236311107
     0.910060823  0.085644278  0.865241445
     0.864047742  0.229749531  0.158759743
     0.337915438  0.463301233  0.264508857
     0.272280799  0.480489006  0.218444533
     0.086365032  0.651924913  0.097095604
     0.059467610  0.586533032  0.146587945
     0.154260534  0.233358121  0.768109334
     0.041214443  0.351614871  0.777704063
     0.916124700  0.150954968  0.120558052
     0.252881126  0.093980815  0.958357776
     0.248524286  0.521395085  0.051534083
     0.259323687  0.696659354  0.038818993
     0.515560704  0.526798291  0.160784559
     0.879114242  0.548643410  0.108016205
     0.785276510  0.427602500  0.135636811
     0.851650767  0.678114232  0.990132226
     0.016665948  0.488633100  0.955102006
     0.749905045  0.889010049  0.864093131
     0.923867016  0.999106764  0.747157578
     0.731625646  0.701005831  0.855673267
     0.070696976  0.359533499  0.923035499
     0.789635322  0.941491172  0.767628104
     0.525190524  0.070124610  0.914535983
     0.479702078  0.933903911  0.891360614
     0.096434874  0.207379464  0.845169179
     0.350937637  0.074473023  0.768112652
     0.158802772  0.127686454  0.036542941
     0.123219282  0.120365652  0.891244455
     0.308445134  0.161493781  0.028936123
     0.021362519  0.123289874  0.197400514
     0.059983863  0.177382279  0.247870913
     0.915432418  0.105174275  0.056450261
     0.181225014  0.881847528  0.908850832
     0.965714571  0.266477663  0.058378168
     0.075122058  0.810356687  0.878569854
     0.577126462  0.358676047  0.772911676
     0.107798752  0.651221186  0.000467053
     0.070031912  0.717106131  0.950638184
     0.103859056  0.751630848  0.774780176
     0.383198764  0.460263140  0.889170188
     0.841985446  0.434680756  0.815143751
     0.511496753  0.387854494  0.908313182
     0.235795963  0.675199120  0.752690063
     0.807253996  0.435936759  0.766330442
     0.631638241  0.841429958  0.805190588
     0.574268580  0.791295727  0.759842135
     0.239874707  0.937531858  0.756317541
     0.371364885  0.806588678  0.990082443
     0.472978462  0.669302851  0.936095084
     0.274973007  0.924136008  0.015293188
     0.452564034  0.419203334  0.042380094
     0.575928281  0.730760469  0.967275464
     0.648425585  0.299544824  0.017389193
     0.700497612  0.401922187  0.061047500
     0.106006905  0.374206988  0.213935243
     0.644396149  0.499364355  0.856765161
     0.575101882  0.853944442  0.119984227
     0.763724057  0.429914093  0.883574646
     0.453880553  0.877983866  0.088824755
     0.523839489  0.510063727  0.768663578
     0.417908518  0.309178358  0.085451168
     0.765749623  0.885424234  0.037007909
     0.687999063  0.979915991  0.069259606
     0.273212717  0.449051347  0.776954008
     0.369013887  0.534641764  0.745504802
     0.862177003  0.318250505  0.945666581
     0.813036819  0.232687417  0.907725750
     0.777723536  0.761813243  0.129050599
     0.782047833  0.926274516  0.151136729
     0.695937624  0.780536004  0.201861350
     0.618288639  0.764931046  0.244660612

  ion indices of the primitive-cell ions
   primitive index   ion index
                 1           1
                 2           2
                 3           3
                 4           4
                 5           5
                 6           6
                 7           7
                 8           8
                 9           9
                10          10
                11          11
                12          12
                13          13
                14          14
                15          15
                16          16
                17          17
                18          18
                19          19
                20          20
                21          21
                22          22
                23          23
                24          24
                25          25
                26          26
                27          27
                28          28
                29          29
                30          30
                31          31
                32          32
                33          33
                34          34
                35          35
                36          36
                37          37
                38          38
                39          39
                40          40
                41          41
                42          42
                43          43
                44          44
                45          45
                46          46
                47          47
                48          48
                49          49
                50          50
                51          51
                52          52
                53          53
                54          54
                55          55
                56          56
                57          57
                58          58
                59          59
                60          60
                61          61
                62          62
                63          63
                64          64
                65          65
                66          66
                67          67
                68          68
                69          69
                70          70
                71          71
                72          72
                73          73
                74          74
                75          75
                76          76
                77          77
                78          78
                79          79
                80          80
                81          81
                82          82
                83          83
                84          84
                85          85
                86          86
                87          87
                88          88
                89          89
                90          90
                91          91
                92          92
                93          93
                94          94
                95          95
                96          96
                97          97
                98          98
                99          99
               100         100
               101         101
               102         102
               103         103
               104         104
               105         105
               106         106
               107         107
               108         108
               109         109
               110         110
               111         111
               112         112
               113         113
               114         114
               115         115
               116         116
               117         117
               118         118
               119         119
               120         120
               121         121
               122         122
               123         123
               124         124
               125         125
               126         126
               127         127
               128         128
               129         129
               130         130
               131         131
               132         132
               133         133
               134         134
               135         135
               136         136
               137         137
               138         138
               139         139
               140         140
               141         141
               142         142
               143         143
               144         144
               145         145
               146         146
               147         147
               148         148
               149         149
               150         150
               151         151
               152         152
               153         153
               154         154
               155         155
               156         156
               157         157
               158         158
               159         159
               160         160
               161         161
               162         162
               163         163
               164         164
               165         165
               166         166
               167         167
               168         168
               169         169
               170         170
               171         171
               172         172
               173         173
               174         174
               175         175
               176         176
               177         177
               178         178
               179         179
               180         180
               181         181
               182         182
               183         183
               184         184
               185         185
               186         186
               187         187
               188         188
               189         189
               190         190
               191         191
               192         192
               193         193
               194         194
               195         195
               196         196
               197         197
               198         198
               199         199
               200         200
               201         201
               202         202
               203         203
               204         204
               205         205
               206         206
               207         207
               208         208
               209         209
               210         210
               211         211
               212         212
               213         213
               214         214
               215         215
               216         216
               217         217
               218         218
               219         219
               220         220
               221         221
               222         222
               223         223
               224         224
               225         225
               226         226
               227         227
               228         228
               229         229
               230         230
               231         231
               232         232
               233         233
               234         234
               235         235
               236         236
               237         237
               238         238
               239         239
               240         240
               241         241
               242         242
               243         243
               244         244
               245         245
               246         246

----------------------------------------------------------------------------------------

 
 
 KPOINTS: KPOINTS created by Atomic Simulation Env

Automatic generation of k-mesh.
 Grid dimensions read from file:
 generate k-points for:    2    2    1

 Generating k-lattice:

  Cartesian coordinates                     Fractional coordinates (reciprocal lattice)
     0.049307831  0.000000000  0.000000000     0.500000000  0.000000000  0.000000000
     0.000000000  0.056935779  0.000000000     0.000000000  0.500000000  0.000000000
     0.000000000  0.000000000  0.033188271     0.000000000  0.000000000  1.000000000

  Length of vectors
     0.049307831  0.056935779  0.033188271

  Shift w.r.t. Gamma in fractional coordinates (k-lattice)
     0.500000000  0.500000000  0.000000000

 
 Subroutine IBZKPT returns following result:
 ===========================================
 
 Found      2 irreducible k-points:
 
 Following reciprocal coordinates:
            Coordinates               Weight
  0.250000  0.250000  0.000000      2.000000
 -0.250000  0.250000  0.000000      2.000000
 
 Following cartesian coordinates:
            Coordinates               Weight
  0.024654  0.028468  0.000000      2.000000
 -0.024654  0.028468  0.000000      2.000000
 


--------------------------------------------------------------------------------------------------------




 Dimension of arrays:
   k-points           NKPTS =      2   k-points in BZ     NKDIM =      2   number of bands    NBANDS=    874
   number of dos      NEDOS =    301   number of ions     NIONS =    246
   non local maximal  LDIM  =      6   non local SUM 2l+1 LMDIM =     18
   total plane-waves  NPLWV = ******
   max r-space proj   IRMAX =   8746   max aug-charges    IRDMAX=  24571
   dimension x,y,z NGX =    96 NGY =   84 NGZ =  280
   dimension x,y,z NGXF=   192 NGYF=  168 NGZF=  560
   support grid    NGXF=   192 NGYF=  168 NGZF=  560
   ions per type =              96  50 100
   NGX,Y,Z   is equivalent  to a cutoff of  15.74, 15.90, 15.45 a.u.
   NGXF,Y,Z  is equivalent  to a cutoff of  31.48, 31.80, 30.90 a.u.

 SYSTEM =  unknown system                          
 POSCAR =  Cu O  H                                 

 Startparameter for this run:
   NWRITE =      2    write-flag & timer
   PREC   = accura    normal or accurate (medium, high low for compatibility)
   ISTART =      0    job   : 0-new  1-cont  2-samecut
   ICHARG =      2    charge: 1-file 2-atom 10-const
   ISPIN  =      1    spin polarized calculation?
   LNONCOLLINEAR =      F non collinear calculations
   LSORBIT =      F    spin-orbit coupling
   INIWAV =      1    electr: 0-lowe 1-rand  2-diag
   LASPH  =      T    aspherical Exc in radial PAW
 Electronic Relaxation 1
   ENCUT  =  800.0 eV  58.80 Ry    7.67 a.u.  23.39 20.25 69.49*2*pi/ulx,y,z
   ENINI  =  800.0     initial cutoff
   ENAUG  = 1000.0 eV  augmentation charge cutoff
   NELM   =    160;   NELMIN=  2; NELMDL= -5     # of ELM steps 
   EDIFF  = 0.1E-06   stopping-criterion for ELM
   LREAL  =      T    real-space projection
   NLSPLINE    = F    spline interpolate recip. space projectors
   LCOMPAT=      F    compatible to vasp.4.4
   GGA_COMPAT  = T    GGA compatible to vasp.4.4-vasp.4.6
   LMAXPAW     = -100 max onsite density
   LMAXMIX     =    2 max onsite mixed and CHGCAR
   VOSKOWN=      0    Vosko Wilk Nusair interpolation
   ROPT   =   -0.00025  -0.00025  -0.00025
 Ionic relaxation
   EDIFFG = 0.1E-05   stopping-criterion for IOM
   NSW    =      0    number of steps for IOM
   NBLOCK =      1;   KBLOCK =      1    inner block; outer block 
   IBRION =     -1    ionic relax: 0-MD 1-quasi-New 2-CG
   NFREE  =      0    steps in history (QN), initial steepest desc. (CG)
   ISIF   =      2    stress and relaxation
   IWAVPR =     10    prediction:  0-non 1-charg 2-wave 3-comb
   ISYM   =      2    0-nonsym 1-usesym 2-fastsym
   LCORR  =      T    Harris-Foulkes like correction to forces

   POTIM  = 0.5000    time-step for ionic-motion
   TEIN   =    0.0    initial temperature
   TEBEG  =    0.0;   TEEND  =   0.0 temperature during run
   SMASS  =  -3.00    Nose mass-parameter (am)
   estimated Nose-frequenzy (Omega)   =  0.10E-29 period in steps = 0.13E+47 mass=  -0.235E-26a.u.
   SCALEE = 1.0000    scale energy and forces
   NPACO  =    256;   APACO  = 10.0  distance and # of slots for P.C.
   PSTRESS=    0.0 pullay stress

  Mass of Ions in am
   POMASS =  63.55 16.00  1.00
  Ionic Valenz
   ZVAL   =  11.00  6.00  1.00
  Atomic Wigner-Seitz radii
   RWIGS  =  -1.00 -1.00 -1.00
  virtual crystal weights 
   VCA    =   1.00  1.00  1.00
   NELECT =    1456.0000    total number of electrons
   NUPDOWN=      -1.0000    fix difference up-down

 DOS related values:
   EMIN   =  10.00;   EMAX   =-10.00  energy-range for DOS
   EFERMI =   0.00;   METHOD = LEGACY      
   ISMEAR =     0;   SIGMA  =   0.10  broadening in eV -4-tet -1-fermi 0-gaus

 Electronic relaxation 2 (details)
   IALGO  =     68    algorithm
   LDIAG  =      T    sub-space diagonalisation (order eigenvalues)
   LSUBROT=      F    optimize rotation matrix (better conditioning)
   TURBO    =      0    0=normal 1=particle mesh
   IRESTART =      0    0=no restart 2=restart with 2 vectors
   NREBOOT  =      0    no. of reboots
   NMIN     =      0    reboot dimension
   EREF     =   0.00    reference energy to select bands
   IMIX   =      4    mixing-type and parameters
     AMIX     =   0.40;   BMIX     =  1.00
     AMIX_MAG =   1.60;   BMIX_MAG =  1.00
     AMIN     =   0.10
     WC   =   100.;   INIMIX=   1;  MIXPRE=   1;  MAXMIX= -45

 Intra band minimization:
   WEIMIN = 0.0000     energy-eigenvalue tresh-hold
   EBREAK =  0.29E-10  absolut break condition
   DEPER  =   0.30     relativ break condition  

   TIME   =   0.40     timestep for ELM

  volume/ion in A,a.u.               =      10.91        73.61
  Fermi-wavevector in a.u.,A,eV,Ry     =   1.335295  2.523342 24.259360  1.783013
  Thomas-Fermi vector in A             =   2.464010
 
 Write flags
   LWAVE        =      T    write WAVECAR
   LDOWNSAMPLE  =      F    k-point downsampling of WAVECAR
   LCHARG       =      T    write CHGCAR
   LVTOT        =      F    write LOCPOT, total local potential
   LVHAR        =      T    write LOCPOT, Hartree potential only
   WRT_POTENTIAL=  hartree ionic  ! write potential to hdf5 file
   LELF         =      F    write electronic localiz. function (ELF)
   LORBIT       =      0    0 simple, 1 ext, 2 COOP (PROOUT), +10 PAW based schemes


 Dipole corrections
   LMONO      =      F    monopole corrections only (constant potential shift)
   LDIPOL     =      F    correct potential (dipole corrections)
   IDIPOL     =      0    1-x, 2-y, 3-z, 4-all directions 
   EPSILON    =  1.0000000 bulk dielectric constant
   LVACPOTAV  =      F  vacuum potentials using an averaging scheme for the charge density
   VACPOTFLAT =  0.1000000 required flatness to determine vacuum potential
 Exchange correlation treatment:
   METAGGA = R2SCAN    functional components
   XC_C    = 1    coefficients multiplying the functional components
   LIBXC   =     F    Libxc                    
   VOSKOWN =     0    Vosko Wilk Nusair interpolation
   LHFCALC =     F    Hartree Fock is set to
   LHFONE  =     F    Hartree Fock one center treatment
   AEXX    =    0.0000 exact exchange contribution

 Parameters of functionals:
   R2SCAN:
     No parameter
 
 Accuracy and mixing parameters for tau-dependent meta-GGA functionals:
   LMAXTAU = 6
   LMIXTAU = T
 
 Van der Waals corrections
   IVDW    =     0    specifies the selected vdW correction

 Linear response parameters
   LEPSILON=     F    determine dielectric tensor
   LRPA    =     F    only Hartree local field effects (RPA)
   LNABLA  =     F    use nabla operator in PAW spheres
   LVEL    =     F    velocity operator in full k-point grid
   CSHIFT  =0.1000    complex shift for real part using Kramers Kronig
   OMEGAMAX=  -1.0    maximum frequency
   DEG_THRESHOLD= 0.2000000E-02 threshold for treating states as degnerate
   RTIME   =   -0.100 relaxation time in fs
  (WPLASMAI=    0.000 imaginary part of plasma frequency in eV, 0.658/RTIME)
   DFIELD  = 0.0000000 0.0000000 0.0000000 field for delta impulse in time
 
  Optional k-point grid parameters
   LKPOINTS_OPT  =     F    use optional k-point grid
   KPOINTS_OPT_MODE=     1    mode for optional k-point grid
 
 Orbital magnetization related:
   ORBITALMAG=     F  switch on orbital magnetization
   LCHIMAG   =     F  perturbation theory with respect to B field
   DQ        =  0.001000  dq finite difference perturbation B field
   LLRAUG    =     F  two centre corrections for induced B field
   LBONE     =     F  B-component reconstruction in AE one-centre
   LVGVCALC  =     T  calculate vGv susceptibility
   LVGVAPPL  =     F  apply vGv susceptibility instead of pGv for G=0

 Random number generation:
   RANDOM_GENERATOR = DEFAULT
   PCG_SEED         = not used


--------------------------------------------------------------------------------------------------------


 Static calculation
 charge density and potential will be updated during run
 non-spin polarized calculation
 RMM-DIIS sequential band-by-band and
  variant of blocked Davidson during initial phase
 perform sub-space diagonalisation
    before iterative eigenvector-optimisation
 modified Broyden-mixing scheme, WC =      100.0
 initial mixing is a Kerker type mixing with AMIX =  0.4000 and BMIX =      1.0000
 Hartree-type preconditioning will be used
 using additional bands           146
 real space projection scheme for non local part
 use partial core corrections
 calculate Harris-corrections to forces 
   (improved forces if not selfconsistent)
 use gradient corrections 
 use of overlap-Matrix (Vanderbilt PP)
 Gauss-broadening in eV      SIGMA  =   0.10


--------------------------------------------------------------------------------------------------------


  energy-cutoff  :      800.00
  volume of cell :     2683.21
      direct lattice vectors                 reciprocal lattice vectors
    10.140377178  0.000000000  0.000000000     0.098615661  0.000000000  0.000000000
     0.000000000  8.781824240  0.000000000     0.000000000  0.113871557  0.000000000
     0.000000000  0.000000000 30.131127158     0.000000000  0.000000000  0.033188271

  length of vectors
    10.140377178  8.781824240 30.131127158     0.098615661  0.113871557  0.033188271


 
 k-points in units of 2pi/SCALE and weight: KPOINTS created by Atomic Simulation Env
   0.02465392  0.02846789  0.00000000       0.500
  -0.02465392  0.02846789  0.00000000       0.500
 
 k-points in reciprocal lattice and weights: KPOINTS created by Atomic Simulation Env
   0.25000000  0.25000000  0.00000000       0.500
  -0.25000000  0.25000000  0.00000000       0.500
 
 position of ions in fractional coordinates (direct lattice) 
   0.69640112  0.12134039  0.32996409
   0.95539346  0.12713987  0.32750418
   0.20021445  0.11704857  0.32493275
   0.43294248  0.12276379  0.33283189
   0.82289641  0.36699778  0.32575117
   0.06982462  0.36678712  0.32999728
   0.31915578  0.38538462  0.33463069
   0.57289979  0.36619954  0.32416112
   0.93639318  0.62392731  0.32699275
   0.18284330  0.61487908  0.33067698
   0.44843598  0.61563291  0.32838831
   0.69103840  0.62788777  0.32526729
   0.05719097  0.86834122  0.33051070
   0.31531076  0.85492146  0.32903814
   0.56512888  0.87281865  0.33109050
   0.82348318  0.86905520  0.32822005
   0.56325222  0.21680803  0.39664630
   0.79858962  0.19951208  0.39491387
   0.06164297  0.20469323  0.39624472
   0.31103774  0.20697294  0.39763863
   0.70034772  0.44937930  0.39321795
   0.95211646  0.46222742  0.39774483
   0.19059843  0.46113653  0.39677573
   0.45145954  0.46204978  0.39698150
   0.81298948  0.70527032  0.39682219
   0.06432640  0.70677001  0.39681224
   0.31925242  0.70187353  0.39637415
   0.56811102  0.70722208  0.39444591
   0.94538693  0.94703330  0.39572034
   0.18951070  0.94775525  0.39429989
   0.43650546  0.96347977  0.39939760
   0.68244306  0.96015017  0.39857785
   0.56249979  0.04166663  0.46565135
   0.81250035  0.04166663  0.46565135
   0.06250004  0.04166663  0.46565135
   0.31250021  0.04166663  0.46565135
   0.68750007  0.29166719  0.46565135
   0.93749964  0.29166719  0.46565135
   0.18749993  0.29166719  0.46565135
   0.43750049  0.29166719  0.46565135
   0.81250035  0.54166650  0.46565135
   0.06250004  0.54166650  0.46565135
   0.31250021  0.54166650  0.46565135
   0.56249979  0.54166650  0.46565135
   0.93749964  0.79166695  0.46565135
   0.18749993  0.79166695  0.46565135
   0.43750049  0.79166695  0.46565135
   0.68750007  0.79166695  0.46565135
   0.68750007  0.12500022  0.53434775
   0.93749964  0.12500022  0.53434775
   0.18749993  0.12500022  0.53434775
   0.43750049  0.12500022  0.53434775
   0.81250035  0.37499953  0.53434775
   0.06250004  0.37499953  0.53434775
   0.31250021  0.37499953  0.53434775
   0.56249979  0.37499953  0.53434775
   0.93749964  0.62499998  0.53434775
   0.18749993  0.62499998  0.53434775
   0.43750049  0.62499998  0.53434775
   0.68750007  0.62499998  0.53434775
   0.06250004  0.87500043  0.53434775
   0.31250021  0.87500043  0.53434775
   0.56249979  0.87500043  0.53434775
   0.81250035  0.87500043  0.53434775
   0.55712523  0.22095979  0.60174981
   0.82482533  0.21650285  0.60274878
   0.06910354  0.20825286  0.60737190
   0.31825345  0.20859903  0.60281847
   0.68514710  0.46156583  0.60543039
   0.94106066  0.46183912  0.60429867
   0.18702164  0.44879627  0.60245340
   0.43742949  0.46442287  0.59863675
   0.81725461  0.72100054  0.60266580
   0.06727393  0.70062322  0.60264257
   0.30485947  0.71093657  0.60627337
   0.56444054  0.70590914  0.59900514
   0.95101295  0.94912284  0.59928724
   0.20779306  0.95826445  0.60796597
   0.45152660  0.96349685  0.60791619
   0.69117547  0.97250751  0.60203523
   0.57578036  0.04755572  0.67393762
   0.83146611  0.03329308  0.66809980
   0.06227185  0.02620025  0.66955345
   0.31937471  0.03646611  0.67723985
   0.70137233  0.30760351  0.66848478
   0.94163460  0.28497040  0.67626743
   0.19601638  0.28175012  0.67414670
   0.44724471  0.29070042  0.66998821
   0.83104700  0.54193068  0.67438898
   0.07045349  0.53335274  0.67247733
   0.32551748  0.52130399  0.66797036
   0.58846332  0.54772105  0.67324066
   0.94359212  0.77185102  0.66853788
   0.17623999  0.78564998  0.67251716
   0.45246936  0.78470598  0.67459474
   0.69473451  0.79304935  0.66870051
   0.51469289  0.17949346  0.79598748
   0.44378330  0.12851430  0.22519669
   0.08624157  0.47854180  0.20592293
   0.20319264  0.46065827  0.87288470
   0.98484009  0.71486058  0.80823063
   0.33243931  0.72883832  0.13403581
   0.94799038  0.69557074  0.25317805
   0.70060313  0.10818777  0.26033908
   0.55492709  0.50514903  0.19092548
   0.51849353  0.22658276  0.12871507
   0.16415464  0.83505201  0.20955207
   0.61135103  0.06531798  0.96398319
   0.41378737  0.79611591  0.23875542
   0.78282394  0.36733484  0.19951593
   0.81350722  0.07760529  0.86549368
   0.88597789  0.12813283  0.15110022
   0.35356476  0.44859814  0.23243704
   0.02611550  0.65101622  0.12303191
   0.13122293  0.32489036  0.78496897
   0.22891259  0.06072383  0.92821619
   0.20213351  0.61303436  0.05076843
   0.80669189  0.46481231  0.10490846
   0.76124683  0.69606722  0.99789038
   0.02906933  0.38042438  0.95185287
   0.69012127  0.80195069  0.85486347
   0.88149088  0.95625804  0.77270259
   0.46757432  0.04203512  0.88861263
   0.07202957  0.12450716  0.86321696
   0.27066745  0.05146937  0.75161144
   0.23158014  0.11297152  0.01618758
   0.09213671  0.15303996  0.21920255
   0.99255677  0.16671024  0.06815709
   0.13935280  0.78285898  0.90262471
   0.03631384  0.66461818  0.97805833
   0.17755257  0.77165061  0.75124637
   0.47544780  0.47845071  0.89689974
   0.88142875  0.40884785  0.78561615
   0.60682457  0.87739060  0.77427903
   0.37783506  0.35983526  0.05623885
   0.32504018  0.82600606  0.01843180
   0.50209868  0.76305900  0.95015695
   0.64345240  0.39677633  0.03361076
   0.73886009  0.50387822  0.85878301
   0.53879948  0.92249398  0.09653771
   0.60538083  0.45663291  0.76487016
   0.75686534  0.99216288  0.04850300
   0.33278940  0.53846557  0.77570945
   0.77039442  0.28977123  0.93014111
   0.73499337  0.82927303  0.14925827
   0.70092265  0.80882967  0.23210051
   0.54646291  0.07687765  0.78563606
   0.52378525  0.15992349  0.82715790
   0.52524969  0.15240683  0.24072647
   0.37696527  0.20345887  0.23252598
   0.79054949  0.09250811  0.83392831
   0.04661621  0.52159322  0.23224355
   0.20729702  0.41518481  0.84429965
   0.18837761  0.56650986  0.86516511
   0.93557861  0.80132781  0.79237992
   0.95412329  0.61624895  0.79782279
   0.69525520  0.99502403  0.25145525
   0.28649526  0.66321072  0.11224572
   0.42099716  0.76460879  0.20883288
   0.85725608  0.71687611  0.24374096
   0.16798685  0.94630225  0.20697500
   0.72180353  0.17064450  0.23514719
   0.47613022  0.49253092  0.21048300
   0.49670638  0.19775846  0.15865620
   0.53185891  0.12786751  0.11573580
   0.31041843  0.07375859  0.91076248
   0.22743927  0.81716507  0.23288143
   0.72251750  0.59893592  0.00456969
   0.63425451  0.00531400  0.98803141
   0.68307518  0.12953687  0.95669836
   0.26811330  0.76186448  0.15671501
   0.43248095  0.90290010  0.23596197
   0.83492654  0.44100290  0.21346862
   0.69093978  0.40130159  0.19900948
   0.99787204  0.77051189  0.23631111
   0.91006082  0.08564428  0.86524144
   0.86404774  0.22974953  0.15875974
   0.33791544  0.46330123  0.26450886
   0.27228080  0.48048901  0.21844453
   0.08636503  0.65192491  0.09709560
   0.05946761  0.58653303  0.14658794
   0.15426053  0.23335812  0.76810933
   0.04121444  0.35161487  0.77770406
   0.91612470  0.15095497  0.12055805
   0.25288113  0.09398082  0.95835778
   0.24852429  0.52139509  0.05153408
   0.25932369  0.69665935  0.03881899
   0.51556070  0.52679829  0.16078456
   0.87911424  0.54864341  0.10801620
   0.78527651  0.42760250  0.13563681
   0.85165077  0.67811423  0.99013223
   0.01666595  0.48863310  0.95510201
   0.74990504  0.88901005  0.86409313
   0.92386702  0.99910676  0.74715758
   0.73162565  0.70100583  0.85567327
   0.07069698  0.35953350  0.92303550
   0.78963532  0.94149117  0.76762810
   0.52519052  0.07012461  0.91453598
   0.47970208  0.93390391  0.89136061
   0.09643487  0.20737946  0.84516918
   0.35093764  0.07447302  0.76811265
   0.15880277  0.12768645  0.03654294
   0.12321928  0.12036565  0.89124445
   0.30844513  0.16149378  0.02893612
   0.02136252  0.12328987  0.19740051
   0.05998386  0.17738228  0.24787091
   0.91543242  0.10517428  0.05645026
   0.18122501  0.88184753  0.90885083
   0.96571457  0.26647766  0.05837817
   0.07512206  0.81035669  0.87856985
   0.57712646  0.35867605  0.77291168
   0.10779875  0.65122119  0.00046705
   0.07003191  0.71710613  0.95063818
   0.10385906  0.75163085  0.77478018
   0.38319876  0.46026314  0.88917019
   0.84198545  0.43468076  0.81514375
   0.51149675  0.38785449  0.90831318
   0.23579596  0.67519912  0.75269006
   0.80725400  0.43593676  0.76633044
   0.63163824  0.84142996  0.80519059
   0.57426858  0.79129573  0.75984214
   0.23987471  0.93753186  0.75631754
   0.37136488  0.80658868  0.99008244
   0.47297846  0.66930285  0.93609508
   0.27497301  0.92413601  0.01529319
   0.45256403  0.41920333  0.04238009
   0.57592828  0.73076047  0.96727546
   0.64842558  0.29954482  0.01738919
   0.70049761  0.40192219  0.06104750
   0.10600690  0.37420699  0.21393524
   0.64439615  0.49936436  0.85676516
   0.57510188  0.85394444  0.11998423
   0.76372406  0.42991409  0.88357465
   0.45388055  0.87798387  0.08882476
   0.52383949  0.51006373  0.76866358
   0.41790852  0.30917836  0.08545117
   0.76574962  0.88542423  0.03700791
   0.68799906  0.97991599  0.06925961
   0.27321272  0.44905135  0.77695401
   0.36901389  0.53464176  0.74550480
   0.86217700  0.31825051  0.94566658
   0.81303682  0.23268742  0.90772575
   0.77772354  0.76181324  0.12905060
   0.78204783  0.92627452  0.15113673
   0.69593762  0.78053600  0.20186135
   0.61828864  0.76493105  0.24466061
 
 position of ions in cartesian coordinates  (Angst):
   7.06177000  1.06559000  9.94219000
   9.68805000  1.11652000  9.86807000
   2.03025000  1.02790000  9.79059000
   4.39020000  1.07809000 10.02860000
   8.34448000  3.22291000  9.81525000
   0.70804800  3.22106000  9.94319000
   3.23636000  3.38438000 10.08280000
   5.80942000  3.21590000  9.76734000
   9.49538000  5.47922000  9.85266000
   1.85410000  5.39976000  9.96367000
   4.54731000  5.40638000  9.89471000
   7.00739000  5.51400000  9.80067000
   0.57993800  7.62562000  9.95866000
   3.19737000  7.50777000  9.91429000
   5.73062000  7.66494000  9.97613000
   8.35043000  7.63189000  9.88964000
   5.71159000  1.90397000 11.95140000
   8.09800000  1.75208000 11.89920000
   0.62508300  1.79758000 11.93930000
   3.15404000  1.81760000 11.98130000
   7.10179000  3.94637000 11.84810000
   9.65482000  4.05920000 11.98450000
   1.93274000  4.04962000 11.95530000
   4.57797000  4.05764000 11.96150000
   8.24402000  6.19356000 11.95670000
   0.65229400  6.20673000 11.95640000
   3.23734000  6.16373000 11.94320000
   5.76086000  6.21070000 11.88510000
[...]
      0.63377      0.36591     14.03060         0.048415     -0.067645     -0.179568
      3.16887      0.36591     14.03060        -0.143954     -0.047108      0.096344
      6.97151      2.56137     14.03060         0.027339      0.053899     -0.029964
      9.50660      2.56137     14.03060        -0.117144     -0.068646     -0.236967
      1.90132      2.56137     14.03060        -0.068608     -0.015137     -0.024823
      4.43642      2.56137     14.03060        -0.005247      0.000859     -0.018398
      8.23906      4.75682     14.03060        -0.006998     -0.079969     -0.151122
      0.63377      4.75682     14.03060         0.139394      0.026729      0.226716
      3.16887      4.75682     14.03060         0.042362     -0.049956     -0.016846
      5.70396      4.75682     14.03060         0.192644      0.010237     -0.119572
      9.50660      6.95228     14.03060        -0.007971     -0.032766      0.013782
      1.90132      6.95228     14.03060         0.058464     -0.027255     -0.107768
      4.43642      6.95228     14.03060         0.075035     -0.070980     -0.074218
      6.97151      6.95228     14.03060        -0.011529     -0.062549     -0.057692
      6.97151      1.09773     16.10050         0.001396      0.198745     -0.067299
      9.50660      1.09773     16.10050         0.125294      0.099223      0.034857
      1.90132      1.09773     16.10050        -0.058129     -0.068902      0.269007
      4.43642      1.09773     16.10050         0.021058     -0.137978      0.034986
      8.23906      3.29318     16.10050        -0.021824      0.135096      0.114538
      0.63377      3.29318     16.10050        -0.099314     -0.086865      0.120369
      3.16887      3.29318     16.10050        -0.082235     -0.095731     -0.235908
      5.70396      3.29318     16.10050         0.177673      0.076975     -0.302479
      9.50660      5.48864     16.10050        -0.021874      0.012175      0.028465
      1.90132      5.48864     16.10050         0.100828     -0.010459      0.002918
      4.43642      5.48864     16.10050        -0.194784      0.274907     -0.348414
      6.97151      5.48864     16.10050         0.206952     -0.084575     -0.114356
      0.63377      7.68410     16.10050         0.420319     -0.084604     -0.235681
      3.16887      7.68410     16.10050         0.089458      0.045675      0.300718
      5.70396      7.68410     16.10050        -0.051639      0.206698      0.012225
      8.23906      7.68410     16.10050        -0.039023      0.067283     -0.209023
      5.64946      1.94043     18.13140         0.824095     -0.511678      0.262615
      8.36404      1.90129     18.16150        -0.337777     -0.342106      0.064192
      0.70074      1.82884     18.30080        -0.131982     -0.250768     -0.447310
      3.22721      1.83188     18.16360        -0.260100     -0.106631      0.305957
      6.94765      4.05339     18.24230         0.523810      0.298017     -0.831075
      9.54271      4.05579     18.20820        -0.239906     -0.122427     -0.015410
      1.89647      3.94125     18.15260         0.220980      0.331468      0.149929
      4.43570      4.07848     18.03760         0.044164     -0.058199      0.747096
      8.28727      6.33170     18.15900        -0.372655     -0.724999     -0.193866
      0.68218      6.15275     18.15830         0.027473      0.174980     -0.078361
      3.09139      6.24332     18.26770         0.829575     -0.256371     -0.170387
      5.72364      6.19917     18.04870        -0.092528      0.371121      0.907832
      9.64363      8.33503     18.05720        -0.194295      0.587844      0.586576
      2.10710      8.41531     18.31870        -0.572037      0.206308     -0.498249
      4.57865      8.46126     18.31720        -0.402749     -0.234969     -0.181677
      7.00878      8.54039     18.14000         0.187851     -0.252430      0.199262
      5.83863      0.41763     20.30650         0.126559     -0.013500     -0.297756
      8.43138      0.29237     20.13060        -0.737729      0.155504     -0.101014
      0.63146      0.23009     20.17440         0.286030      0.538358      0.121095
      3.23858      0.32024     20.40600         0.144493      0.042930      0.195590
      7.11218      2.70132     20.14220        -0.161338     -1.167650      0.420079
      9.54853      2.50256     20.37670         0.334280      0.013372     -0.355902
      1.98768      2.47428     20.31280        -0.168789      0.114385     -0.278173
      4.53523      2.55288     20.18750         0.185735     -0.082721      0.028166
      8.42713      4.75914     20.32010        -0.442820     -0.228024     -0.314300
      0.71443      4.68381     20.26250         0.325442     -0.441945     -0.154926
      3.30087      4.57800     20.12670        -0.173413      0.715149      0.097876
      5.96724      4.80999     20.28550        -1.019511     -0.039399      0.094272
      9.56838      6.77826     20.14380        -0.286307      0.896415      0.249020
      1.78714      6.89944     20.26370         0.986234     -0.278371      0.511701
      4.58821      6.89115     20.32630        -0.352003     -0.041240     -0.559046
      7.04487      6.96442     20.14870         0.058754      0.193300      0.043178
      5.21918      1.57628     23.98400         0.530606     -1.691406     -0.665394
      4.50013      1.12859      6.78543        -0.054979     -0.459103     -0.478138
      0.87452      4.20247      6.20469         0.377869     -0.078243     -0.159971
      2.06045      4.04542     26.30100         0.153866      0.501383      0.357392
      9.98665      6.27778     24.35290         0.092403      0.769419     -0.355082
      3.37106      6.40053      4.03865        -0.357279     -0.392880      0.060637
      9.61298      6.10838      7.62854        -0.554670     -0.123168     -0.432858
      7.10438      0.95009      7.84431        -0.633401     -1.944865     -0.242295
      5.62717      4.43613      5.75280        -0.299724      0.831278     -1.993527
      5.25772      1.98981      3.87833        -0.026668      0.341239     -0.097742
      1.66459      7.33328      6.31404        -0.339254      0.613440     -0.405665
      6.19933      0.57361     29.04590        -1.745437      0.900257     -1.395385
      4.19596      6.99135      7.19397         0.265436     -0.042180      0.800337
      7.93813      3.22587      6.01164        -0.453217     -1.749853     -0.831844
      8.24927      0.68152     26.07830        -0.620660      0.036506     -1.062323
      8.98415      1.12524      4.55282         0.500127     -0.604406     -0.876528
      3.58528      3.93951      7.00359        -0.622684     -0.400064      0.712264
      0.26482      5.71711      3.70709        -0.405839      0.209444     -0.633998
      1.33065      2.85313     23.65200         1.078502     -0.517641      0.121332
      2.32126      0.53327     27.96820         0.634535      0.375424      0.086902
      2.04971      5.38356      1.52971        -1.703285      1.378207      0.570885
      8.18016      4.08190      3.16101         0.827009      0.929469      1.196309
      7.71933      6.11274     30.06756        -0.823065      0.675121      0.228608
      0.29477      3.34082     28.68040        -0.374664     -1.834755     -0.802711
      6.99809      7.04259     25.75800         0.273309      1.093098     -0.055130
      8.93865      8.39769     23.28240         0.820368      0.023409      1.232011
      4.74138      0.36915     26.77490         0.749242      0.760724      0.741145
      0.73041      1.09340     26.00970        -0.668165     -1.190869      0.973282
      2.74467      0.45199     22.64690        -0.428884     -1.224115     -0.198327
      2.34831      0.99210      0.48775         0.340468     -0.503403     -0.102479
      0.93430      1.34397      6.60482         0.353398     -0.427164     -2.292804
     10.06490      1.46402      2.05365        -1.457344     -0.748314     -0.812764
      1.41309      6.87493     27.19710        -1.048915      0.626285     -1.507429
      0.36824      5.83656     29.47000         0.257592      0.456365     -0.204778
      1.80045      6.77650     22.63590         0.154365     -1.234434      0.467796
      4.82122      4.20167     27.02460        -0.357278      1.194713     -0.518272
      8.93802      3.59043     23.67150        -0.817225      0.672490      0.572548
      6.15343      7.70509     23.32990         0.875895      1.488633      1.629943
      3.83139      3.16001      1.69454         1.568128     -0.372099      1.553938
      3.29603      7.25384      0.55537         0.065153      1.017713     -0.642129
      5.09147      6.70105     28.62930        -1.174772     -0.196468     -0.289067
      6.52485      3.48442      1.01273         0.491820     -0.029295      0.042690
      7.49232      4.42497     25.87610         1.255316     -1.307419      1.020164
      5.46363      8.10118      2.90879        -0.089717     -0.825272      0.770038
      6.13879      4.01007     23.04640         0.723995      1.578095     -0.535635
      7.67490      8.71300      1.46145         1.522797     -1.198345     -1.567964
      3.37461      4.72871     23.37300        -0.004799     -0.297059     -0.374938
      7.81209      2.54472     28.02620         2.458613      1.524242      2.015758
      7.45311      7.28253      4.49732        -0.392624      0.262785      0.258310
      7.10762      7.10300      6.99345        -1.120838     -0.272978      2.438090
      5.54134      0.67513     23.67210        -0.300167      0.985117     -0.226379
      5.31138      1.40442     24.92320        -0.359497      0.225693      0.880058
      5.32623      1.33841      7.25336        -0.323442      0.154600      0.237792
      3.82257      1.78674      7.00627         0.357115      0.108728      0.104348
      8.01647      0.81239     25.12720         0.385516     -0.019258      0.964090
      0.47271      4.58054      6.99776        -0.165919      0.449636      0.105099
      2.10207      3.64608     25.43970        -0.074458     -0.647170     -0.830006
      1.91022      4.97499     26.06840        -0.056010      0.160431      0.515844
      9.48712      7.03712     23.87530         0.295385     -0.943167      0.579748
      9.67517      5.41179     24.03930        -0.241964      0.185409     -0.149834
      7.05015      8.73813      7.57663         0.358614      1.543347     -0.152819
      2.90517      5.82420      3.38209         0.245647      0.733112      0.732412
      4.26907      6.71466      6.29237         0.020094     -0.795605     -1.177742
      8.69290      6.29548      7.34419        -0.148925     -0.008677      0.333319
      1.70345      8.31026      6.23639        -0.296592     -0.307548      0.127516
      7.31936      1.49857      7.08525         0.623265      0.361486     -0.374732
      4.82814      4.32532      6.34209         0.210540     -0.079579     -0.183140
      5.03679      1.73668      4.78049        -0.306555      0.267415      0.527428
      5.39325      1.12291      3.48725         0.106453     -0.669961     -0.499927
      3.14776      0.64773     27.44230         0.171999     -0.279909      0.048452
      2.30632      7.17620      7.01698         0.330793     -0.254875      0.227946
      7.32660      5.25975      0.13769         0.022623     -0.553200      0.295416
      6.43158      0.04667     29.77050         0.683642     -1.199876      1.659385
      6.92664      1.13757     28.82640         1.162604      0.813691     -0.195650
      2.71877      6.69056      4.72200         0.071816     -0.311269     -0.697559
      4.38552      7.92911      7.10980        -0.057588      1.022051      0.243878
      8.46647      3.87281      6.43205         0.745441      1.139837      0.783308
      7.00639      3.52416      5.99638        -0.397826      0.697176     -0.076602
     10.11880      6.76650      7.12032         0.754145      0.038924      0.026482
      9.22836      0.75211     26.07070         0.487755     -0.010303     -0.171082
      8.76177      2.01762      4.78361        -0.737434      0.862579      1.128103
      3.42659      4.06863      7.96995         0.156368      0.076301     -0.225427
      2.76103      4.21957      6.58198        -0.445784      0.210577     -0.178580
      0.87577      5.72509      2.92560        -0.241625     -0.418725      0.657620
      0.60302      5.15083      4.41686         0.239077      0.016676     -0.124359
      1.56426      2.04931     23.14400         0.002149      0.091805      0.216621
      0.41793      3.08782     23.43310        -0.620598      0.173191     -0.070028
      9.28985      1.32566      3.63255         0.370531     -0.794466      0.202519
      2.56431      0.82532     28.87640        -0.726593     -0.123971     -0.198209
      2.52013      4.57880      1.55278         1.207074     -1.953071     -0.005429
      2.62964      6.11794      1.16966         0.165269      0.065848     -0.111628
      5.22798      4.62625      4.84462         0.870436     -0.479438      1.729593
      8.91455      4.81809      3.25465        -1.121628     -1.744689      0.091063
      7.96300      3.75513      4.08689         0.484752      0.755024     -1.287490
      8.63606      5.95508     29.83380         0.810811     -0.113652     -0.201453
      0.16900      4.29109     28.77830         0.396060      0.888588      0.149040
      7.60432      7.80713     26.03610        -0.647585     -1.395958     -0.301116
      9.36836      8.77398     22.51270        -0.116474      0.183669     -0.639455
      7.41896      6.15611     25.78240         0.251959      0.594790      0.365199
      0.71689      3.15736     27.81210        -0.235621      0.566479      0.769339
      8.00720      8.26801     23.12950        -1.059258     -0.148116     -0.722881
      5.32563      0.61582     27.55600        -0.599982     -0.257086     -0.573445
      4.86436      8.20138     26.85770         0.003497     -0.566841     -0.273228
      0.97789      1.82117     25.46590         0.470684      0.925416     -0.706831
      3.55864      0.65401     23.14410        -0.222687     -0.196903      0.039409
      1.61032      1.12132      1.10108        -0.287002      0.265556      0.059157
      1.24949      1.05703     26.85420         0.000305      0.241783     -0.433676
      3.12775      1.41821      0.87188        -0.117505      0.543633      0.204348
      0.21662      1.08271      5.94790         0.460468      0.665542      1.113670
      0.60826      1.55774      7.46863        -0.899365     -0.172738      0.993068
      9.28283      0.92362      1.70091         1.005729      0.255775      0.493142
      1.83769      7.74423     27.38470        -0.074801     -0.266126      0.326879
      9.79271      2.34016      1.75900         0.244727      0.380562      0.071806
      0.76177      7.11641     26.47230         0.957219     -0.587644      1.042417
      5.85228      3.14983     23.28870        -0.233729     -2.129053      0.499492
      1.09312      5.71891      0.01407        -0.713924      0.052990     -0.677160
      0.71015      6.29750     28.64380         0.049456     -0.333225      0.890476
      1.05317      6.60069     23.34500         0.820379     -0.009485     -0.820263
      3.88578      4.04195     26.79170         0.009088     -0.130879      0.055461
      8.53805      3.81729     24.56120         0.108796     -0.293798     -0.624340
      5.18677      3.40607     27.36850         0.255001     -1.047957      0.548247
      2.39106      5.92948     22.67940        -1.011513      1.655029      0.529406
      8.18586      3.82832     23.09040         0.341111     -0.220848      0.071732
      6.40505      7.38929     24.26130        -0.035290      0.082549     -0.210443
      5.82330      6.94902     22.89490        -0.626029     -1.310809     -1.091500
      2.43242      8.23324     22.78870         0.702303      1.453424     -0.081185
      3.76578      7.08332     29.83230         0.072100      0.162521      0.406826
      4.79618      5.87770     28.20560         0.169122     -0.021228     -0.231383
      2.78833      8.11560      0.46080         0.586542     -0.649351      0.119917
      4.58917      3.68137      1.27696        -0.794357     -1.341726      1.016088
      5.84013      6.41741     29.14510         0.934950      0.050637      0.268560
      6.57528      2.63055      0.52396         0.266533      0.773957      0.930205
      7.10331      3.52961      1.83943        -0.549909     -0.386142     -1.123377
      1.07495      3.28622      6.44611        -0.236331     -0.510489     -0.291573
      6.53442      4.38533     25.81530        -0.499451     -0.197733      0.103044
      5.83175      7.49919      3.61526        -0.340845      0.947668     -0.817785
      7.74445      3.77543     26.62310        -0.761069      1.259490     -0.832723
      4.60252      7.71030      2.67639         0.223573      0.151712      0.025922
      5.31193      4.47929     23.16070        -0.133132      0.498294      0.256742
      4.23775      2.71515      2.57474        -0.697652      1.455528     -2.259829
      7.76499      7.77564      1.11509         0.077263      1.104014      0.166012
      6.97657      8.60545      2.08687        -1.319724     -0.008675      0.965228
      2.77048      3.94349     23.41050         0.073453      0.326942     -0.137636
      3.74194      4.69513     22.46290        -0.248565     -0.230232     -0.021896
      8.74280      2.79482     28.49400        -1.963157      0.043090     -0.640707
      8.24450      2.04342     27.35080        -0.224707     -1.394232     -1.465204
      7.88641      6.69011      3.88844         0.617927     -0.054520     -0.302500
      7.93026      8.13438      4.55392         0.192941     -0.227723     -0.341417
      7.05707      6.85453      6.08231         0.160740     -0.042436     -1.881101
      6.26968      6.71749      7.37190         0.825649      0.334800     -0.114998
 -----------------------------------------------------------------------------------
    total drift:                                0.009485     -0.013867     -0.009035


--------------------------------------------------------------------------------------------------------



  FREE ENERGIE OF THE ION-ELECTRON SYSTEM (eV)
  ---------------------------------------------------
  free  energy   TOTEN  =     -1812.73934338 eV

  energy  without entropy=    -1812.51405890  energy(sigma->0) =    -1812.62670114
 


--------------------------------------------------------------------------------------------------------


    POTLOK:  cpu time     11.9611: real time     11.9787


--------------------------------------------------------------------------------------------------------


 writing wavefunctions
     LOOP+:  cpu time    708.8527: real time    709.9914
    4ORBIT:  cpu time      0.0000: real time      0.0000

 total amount of memory used by VASP MPI-rank0  3314047. kBytes
=======================================================================

   base      :      30000. kBytes
   nonlr-proj:     188968. kBytes
   fftplans  :     312780. kBytes
   grid      :     814785. kBytes
   one-center:       3825. kBytes
   wavefun   :    1963689. kBytes
 
  
  
 General timing and accounting informations for this job:
 ========================================================
  
                  Total CPU time used (sec):      776.052
                            User time (sec):      756.556
                          System time (sec):       19.495
                         Elapsed time (sec):      777.955
  
                   Maximum memory used (kb):     4919028.
                   Average memory used (kb):          N/A
  
                          Minor page faults:      4586628
                          Major page faults:         3977
                 Voluntary context switches:        22775
