246
Lattice="10.140377177804453 0.0 0.0 0.0 8.781824239934606 0.0 0.0 0.0 30.1311271579" Properties=species:S:1:pos:R:3:momenta:R:3:forces:R:3 target_atoms="0 1 2 3 4 5 6 7 8 9 10 11 12 13 14 15 16 17 18 19 20 21 22 23 24 25 26 27 28 29 30 31 32 33 34 35 36 37 38 39 40 41 42 43 44 45 46 47 48 49 50 51 52 53 54 55 56 57 58 59 60 61 62 63 64 65 66 67 68 69 70 71 72 73 74 75 76 77 78 79 80 81 82 83 84 85 86 87 88 89 90 91 92 93 94 95 96 97 98 99 100 101 102 103 104 105 106 107 108 109 110 111 112 113 114 115 116 117 118 119 120 121 122 123 124 125 126 127 128 129 130 131 132 133 134 135 136 137 138 139 140 141 142 143 144 145 146 147 148 149 150 151 152 153 154 155 156 157 158 159 160 161 162 163 164 165 166 167 168 169 170 171 172 173 174 175 176 177 178 179 180 181 182 183 184 185 186 187 188 189 190 191 192 193 194 195 196 197 198 199 200 201 202 203 204 205 206 207 208 209 210 211 212 213 214 215 216 217 218 219 220 221 222 223 224 225 226 227 228 229 230 231 232 233 234 235 236 237 238 239 240 241 242 243 244 245" step=0 energy=-1802.250920733614 pbc="T T T"
Cu       6.91584000       1.15782000       9.82324000       0.00000000       0.00000000       0.00000000       0.05135370      -0.22310300       0.38245900
Cu       9.46931000       1.02421000       9.86844000       0.00000000       0.00000000       0.00000000      -0.17988600       0.43311700       0.04593070
Cu       1.91443000       1.13606000       9.96900000       0.00000000       0.00000000       0.00000000      -0.13712800      -0.34468700      -0.69971700
Cu       4.42359000       1.24792000       9.79381000       0.00000000       0.00000000       0.00000000      -0.07660930      -0.46259600       0.07768270
Cu       8.25731000       3.22826000       9.90795000       0.00000000       0.00000000       0.00000000      -0.25963100       0.27321500      -0.02340040
Cu       0.59049100       3.25920000       9.86867000       0.00000000       0.00000000       0.00000000      -0.31518400       0.23901100      -0.29210000
Cu       2.93796000       3.34880000       9.90778000       0.00000000       0.00000000       0.00000000       1.20583000       0.03649960      -0.26354400
Cu       5.64782000       3.34494000       9.81713000       0.00000000       0.00000000       0.00000000       0.09363360       0.17243400       0.23534100
Cu       9.55023000       5.46705000       9.96904000       0.00000000       0.00000000       0.00000000      -0.52450300       0.31588000      -0.03313320
Cu       1.82854000       5.54129000       9.99272000       0.00000000       0.00000000       0.00000000       0.05030320       0.16172300      -0.06397190
Cu       4.33692000       5.51902000      10.03890000       0.00000000       0.00000000       0.00000000       0.35307700       0.10153800      -0.41704900
Cu       6.92597000       5.49380000      10.00360000       0.00000000       0.00000000       0.00000000      -0.20685500      -0.01964140      -0.15651700
Cu       0.52983000       7.75299000       9.76359000       0.00000000       0.00000000       0.00000000       0.48148600      -0.41631200       0.42905300
Cu       3.16752000       7.72346000       9.80057000       0.00000000       0.00000000       0.00000000      -0.24748200       0.06637610       0.38533800
Cu       5.65441000       7.74912000       9.92041000       0.00000000       0.00000000       0.00000000      -0.04481180      -0.11722400      -0.08660170
Cu       8.16029000       7.64208000       9.90078000       0.00000000       0.00000000       0.00000000       0.06613540       0.07198920       0.18053300
Cu       5.65647000       1.96376000      11.94440000       0.00000000       0.00000000       0.00000000       0.50300000      -0.91199000      -0.12319500
Cu       8.23095000       1.81792000      11.95000000       0.00000000       0.00000000       0.00000000       0.01939990      -0.16381900       0.01094470
Cu       0.62027000       1.94126000      11.83300000       0.00000000       0.00000000       0.00000000      -0.17716400      -0.56811800       0.93276000
Cu       3.23807000       1.82205000      11.87530000       0.00000000       0.00000000       0.00000000      -0.70032400       0.49818900       0.60589300
Cu       7.01265000       3.96681000      11.95320000       0.00000000       0.00000000       0.00000000      -0.31699900       0.34311100      -0.01400190
Cu       9.52293000       4.06200000      11.91300000       0.00000000       0.00000000       0.00000000      -0.07670580       0.00825632       0.43534600
Cu       1.90807000       4.01344000      11.95800000       0.00000000       0.00000000       0.00000000      -0.16709600       0.32671300       0.33216900
Cu       4.43441000       4.01628000      11.94300000       0.00000000       0.00000000       0.00000000      -0.07827800       0.50197000       0.10801100
Cu       8.10805000       6.15852000      12.01450000       0.00000000       0.00000000       0.00000000       0.76126500       0.43958000      -0.24529500
Cu       0.62340000       6.34945000      12.05230000       0.00000000       0.00000000       0.00000000      -0.28200500      -0.74640800      -0.61756600
Cu       3.07708000       6.24550000      11.96130000       0.00000000       0.00000000       0.00000000       0.38646500       0.34176900       0.24852300
Cu       5.65809000       6.38969000      12.08350000       0.00000000       0.00000000       0.00000000      -0.31222600      -0.83576100      -0.84124800
Cu       9.50327000       8.39355000      11.89990000       0.00000000       0.00000000       0.00000000      -0.64247300       0.23775100       0.25525600
Cu       1.74991000       8.50773000      11.91980000       0.00000000       0.00000000       0.00000000       0.87075300      -0.28149000       0.08983500
Cu       4.33473000       8.53312000      11.89950000       0.00000000       0.00000000       0.00000000       0.31775400      -0.57784600       0.08958380
Cu       6.93780000       8.41821000      11.93230000       0.00000000       0.00000000       0.00000000       0.12588600       0.54077000       0.08064440
Cu       5.70396000       0.36590900      14.03060000       0.00000000       0.00000000       0.00000000       0.00000000       0.00000000       0.00000000
Cu       8.23906000       0.36590900      14.03060000       0.00000000       0.00000000       0.00000000       0.00000000       0.00000000       0.00000000
Cu       0.63377400       0.36590900      14.03060000       0.00000000       0.00000000       0.00000000       0.00000000       0.00000000       0.00000000
Cu       3.16887000       0.36590900      14.03060000       0.00000000       0.00000000       0.00000000       0.00000000       0.00000000       0.00000000
Cu       6.97151000       2.56137000      14.03060000       0.00000000       0.00000000       0.00000000       0.00000000       0.00000000       0.00000000
Cu       9.50660000       2.56137000      14.03060000       0.00000000       0.00000000       0.00000000       0.00000000       0.00000000       0.00000000
Cu       1.90132000       2.56137000      14.03060000       0.00000000       0.00000000       0.00000000       0.00000000       0.00000000       0.00000000
Cu       4.43642000       2.56137000      14.03060000       0.00000000       0.00000000       0.00000000       0.00000000       0.00000000       0.00000000
Cu       8.23906000       4.75682000      14.03060000       0.00000000       0.00000000       0.00000000       0.00000000       0.00000000       0.00000000
Cu       0.63377400       4.75682000      14.03060000       0.00000000       0.00000000       0.00000000       0.00000000       0.00000000       0.00000000
Cu       3.16887000       4.75682000      14.03060000       0.00000000       0.00000000       0.00000000       0.00000000       0.00000000       0.00000000
Cu       5.70396000       4.75682000      14.03060000       0.00000000       0.00000000       0.00000000       0.00000000       0.00000000       0.00000000
Cu       9.50660000       6.95228000      14.03060000       0.00000000       0.00000000       0.00000000       0.00000000       0.00000000       0.00000000
Cu       1.90132000       6.95228000      14.03060000       0.00000000       0.00000000       0.00000000       0.00000000       0.00000000       0.00000000
Cu       4.43642000       6.95228000      14.03060000       0.00000000       0.00000000       0.00000000       0.00000000       0.00000000       0.00000000
Cu       6.97151000       6.95228000      14.03060000       0.00000000       0.00000000       0.00000000       0.00000000       0.00000000       0.00000000
Cu       6.97151000       1.09773000      16.10050000       0.00000000       0.00000000       0.00000000       0.00000000       0.00000000       0.00000000
Cu       9.50660000       1.09773000      16.10050000       0.00000000       0.00000000       0.00000000       0.00000000       0.00000000       0.00000000
Cu       1.90132000       1.09773000      16.10050000       0.00000000       0.00000000       0.00000000       0.00000000       0.00000000       0.00000000
Cu       4.43642000       1.09773000      16.10050000       0.00000000       0.00000000       0.00000000       0.00000000       0.00000000       0.00000000
Cu       8.23906000       3.29318000      16.10050000       0.00000000       0.00000000       0.00000000       0.00000000       0.00000000       0.00000000
Cu       0.63377400       3.29318000      16.10050000       0.00000000       0.00000000       0.00000000       0.00000000       0.00000000       0.00000000
Cu       3.16887000       3.29318000      16.10050000       0.00000000       0.00000000       0.00000000       0.00000000       0.00000000       0.00000000
Cu       5.70396000       3.29318000      16.10050000       0.00000000       0.00000000       0.00000000       0.00000000       0.00000000       0.00000000
Cu       9.50660000       5.48864000      16.10050000       0.00000000       0.00000000       0.00000000       0.00000000       0.00000000       0.00000000
Cu       1.90132000       5.48864000      16.10050000       0.00000000       0.00000000       0.00000000       0.00000000       0.00000000       0.00000000
Cu       4.43642000       5.48864000      16.10050000       0.00000000       0.00000000       0.00000000       0.00000000       0.00000000       0.00000000
Cu       6.97151000       5.48864000      16.10050000       0.00000000       0.00000000       0.00000000       0.00000000       0.00000000       0.00000000
Cu       0.63377400       7.68410000      16.10050000       0.00000000       0.00000000       0.00000000       0.00000000       0.00000000       0.00000000
Cu       3.16887000       7.68410000      16.10050000       0.00000000       0.00000000       0.00000000       0.00000000       0.00000000       0.00000000
Cu       5.70396000       7.68410000      16.10050000       0.00000000       0.00000000       0.00000000       0.00000000       0.00000000       0.00000000
Cu       8.23906000       7.68410000      16.10050000       0.00000000       0.00000000       0.00000000       0.00000000       0.00000000       0.00000000
Cu       5.65403000       1.63080000      18.22730000       0.00000000       0.00000000       0.00000000      -0.05808210       0.67320300      -0.03941030
Cu       8.12626000       1.77068000      18.23450000       0.00000000       0.00000000       0.00000000       0.46599400      -0.49183400      -0.17438300
Cu       0.59074600       1.70670000      18.27160000       0.00000000       0.00000000       0.00000000      -0.18269100       0.45661500      -0.51935100
Cu       3.12979000       1.80260000      18.27960000       0.00000000       0.00000000       0.00000000      -0.03531380      -0.36250500      -0.42577600
Cu       6.85587000       3.86171000      18.15410000       0.00000000       0.00000000       0.00000000       0.19702500       0.03485350       0.43171100
Cu       9.33722000       3.91981000      18.28810000       0.00000000       0.00000000       0.00000000       0.85059600      -0.16804500      -0.25455900
Cu       1.79811000       3.95656000      18.11070000       0.00000000       0.00000000       0.00000000       0.18166800      -0.06463810       0.55846400
Cu       4.37959000       3.94613000      18.24880000       0.00000000       0.00000000       0.00000000      -0.12853700      -0.42928400      -0.38483200
Cu       8.17685000       5.98712000      18.22330000       0.00000000       0.00000000       0.00000000      -0.20961100       0.83794900      -0.03257350
Cu       0.60010000       6.13310000      18.20390000       0.00000000       0.00000000       0.00000000      -0.06457740      -0.26678000      -0.18194800
Cu       3.15754000       6.17465000      18.13470000       0.00000000       0.00000000       0.00000000      -0.19269400      -0.19504600       0.06234400
Cu       5.62488000       5.95737000      18.20100000       0.00000000       0.00000000       0.00000000       0.39681400       1.17333000       0.14157600
Cu       9.45305000       8.31206000      18.08250000       0.00000000       0.00000000       0.00000000      -0.40522800       0.05450100       0.53442900
Cu       1.71823000       8.32512000      18.19840000       0.00000000       0.00000000       0.00000000       1.11705000       0.31323100      -0.11611400
Cu       4.38039000       8.34118000      18.23620000       0.00000000       0.00000000       0.00000000      -0.23956100      -0.18343500       0.03437440
Cu       6.88309000       8.26813000      18.22620000       0.00000000       0.00000000       0.00000000       0.23701900      -0.33005000      -0.31353100
Cu       5.76961000       0.28994400      20.28370000       0.00000000       0.00000000       0.00000000      -0.58160200      -0.18107500       0.02415370
Cu       8.18503000       0.11890400      20.18950000       0.00000000       0.00000000       0.00000000       0.40843100       0.62376700       0.03208450
Cu       0.54332300       0.25115800      20.25450000       0.00000000       0.00000000       0.00000000       0.17632000      -0.21600600       0.04098050
Cu       3.22529000       0.35731100      20.42150000       0.00000000       0.00000000       0.00000000      -0.11104200      -0.52270600      -0.54553100
Cu       7.04105000       2.45138000      20.33710000       0.00000000       0.00000000       0.00000000      -0.45093700       0.02208060      -0.20829500
Cu       9.51682000       2.43595000      20.29980000       0.00000000       0.00000000       0.00000000      -0.13574700       0.03470870       0.02418070
Cu       1.88259000       2.36098000      20.30310000       0.00000000       0.00000000       0.00000000      -0.14477900       0.58683100       0.02295010
Cu       4.41394000       2.51636000      20.31140000       0.00000000       0.00000000       0.00000000       0.41482100      -0.26250500      -0.01540280
Cu       8.19505000       4.62377000      20.38290000       0.00000000       0.00000000       0.00000000       0.16080800       0.08686990      -0.21066200
Cu       0.66677500       4.61926000      20.31720000       0.00000000       0.00000000       0.00000000      -0.16834600       0.11397600      -0.44320700
Cu       3.14881000       4.59278000      20.23070000       0.00000000       0.00000000       0.00000000      -0.26067100       0.29173000       0.00226814
Cu       5.70583000       4.65694000      20.33440000       0.00000000       0.00000000       0.00000000      -0.03802280      -0.14925000      -0.21856900
Cu       9.48310000       6.81139000      20.17230000       0.00000000       0.00000000       0.00000000       0.07769730      -0.06369770       0.14008100
Cu       1.98233000       6.91216000      20.14080000       0.00000000       0.00000000       0.00000000      -0.64176000      -0.19910100       0.38845900
Cu       4.34034000       6.78921000      20.26980000       0.00000000       0.00000000       0.00000000       0.71499400       0.29771800      -0.12885900
Cu       6.94445000       6.82934000      20.37100000       0.00000000       0.00000000       0.00000000      -0.16507600      -0.18252500      -0.43228600
O        5.74808000       4.34509000      23.49680000       0.00000000       0.00000000       0.00000000      -0.00393413      -0.91470000      -1.56216000
H        6.70283000       4.56411000      23.48620000       0.00000000       0.00000000       0.00000000      -0.40643500       0.33667300      -0.13031000
H        5.56732000       3.96477000      22.56580000       0.00000000       0.00000000       0.00000000       0.34151400       0.74065800       1.34172000
O        1.41287000       6.82557000      -0.00893905       0.00000000       0.00000000       0.00000000      -1.44958000      -0.11982900      -0.35651400
H        0.49856300       7.01918000      29.80610000       0.00000000       0.00000000       0.00000000       0.50727800      -0.00824573       0.12590600
H        1.50447000       7.52756000       0.65227200       0.00000000       0.00000000       0.00000000       0.64555400       0.23317500       0.11275600
O        1.86296000       7.17902000      23.34200000       0.00000000       0.00000000       0.00000000      -0.43665700       0.91273400       0.64111900
H        1.40696000       8.39418000       3.11784000       0.00000000       0.00000000       0.00000000      -0.62136200      -1.54484000       0.36331600
H        0.92429400       7.44687000      23.22900000       0.00000000       0.00000000       0.00000000       0.15590500       0.31401600       0.41353300
O        6.23730000       2.89392000      25.65880000       0.00000000       0.00000000       0.00000000      -1.04016000      -1.17091000       0.72050700
H        5.53447000       2.36213000      26.13660000       0.00000000       0.00000000       0.00000000       0.75272000       0.65744700      -0.34042500
H        5.84322000       3.16266000      24.80980000       0.00000000       0.00000000       0.00000000       0.21567500       0.17158200      -0.16218200
O        6.49347000       0.85615500      23.17720000       0.00000000       0.00000000       0.00000000      -0.25687400       0.48846700      -1.21740000
H        6.90282000       9.01654000      22.52630000       0.00000000       0.00000000       0.00000000      -0.26639600       0.38313100       0.59909200
H        6.12934000       1.54807000      22.54890000       0.00000000       0.00000000       0.00000000       0.44481300      -0.88544500       0.84724500
O        2.92845000       0.99286400      24.71750000       0.00000000       0.00000000       0.00000000       0.92995100      -0.35153800      -0.28309800
H        1.19587000       1.32827000      27.51490000       0.00000000       0.00000000       0.00000000       0.38357300       1.04702000      -0.18724000
H        1.96733000       0.96782200      24.74170000       0.00000000       0.00000000       0.00000000      -1.32283000       0.31717900       0.11408000
O        0.17851300       5.25183000       2.97157000       0.00000000       0.00000000       0.00000000       1.12166000       0.99541200       0.67151600
H        3.76441000       7.65224000       6.22206000       0.00000000       0.00000000       0.00000000      -0.51533100       0.03398520      -0.61871200
H        0.71226100       4.52182000       3.30370000       0.00000000       0.00000000       0.00000000       0.20394500      -0.21045900       0.09858650
O        0.63551500       0.58308800      27.33680000       0.00000000       0.00000000       0.00000000      -0.21431200      -1.38658000       1.03995000
H        9.43304000       4.54573000       0.56657700       0.00000000       0.00000000       0.00000000      -0.23986800      -0.64778100      -0.37441400
H        0.27198500       0.73187200      26.47180000       0.00000000       0.00000000       0.00000000      -0.36699200       0.49813800      -1.08945000
O        8.07084000       3.11704000      28.39870000       0.00000000       0.00000000       0.00000000      -0.04302320      -0.64319000       0.22740500
H        7.32992000       2.63283000      28.87010000       0.00000000       0.00000000       0.00000000       0.44032600       0.78058100      -1.01276000
H        8.20834000       5.56371000      24.76780000       0.00000000       0.00000000       0.00000000      -0.51585900       0.79593100      -0.65872300
O        8.20835000       5.96283000      23.83800000       0.00000000       0.00000000       0.00000000      -0.84346300      -0.60253500       2.19403000
H        8.96491000       5.49191000      23.53090000       0.00000000       0.00000000       0.00000000       1.42215000      -0.66475000      -1.04376000
H        2.24255000       1.09383000       1.75303000       0.00000000       0.00000000       0.00000000      -0.50658700      -0.02463080      -0.17742600
O        9.68449000       3.69586000       0.14649100       0.00000000       0.00000000       0.00000000       1.55626000       1.18088000       0.88637600
H        9.10977000       3.52078000      29.51930000       0.00000000       0.00000000       0.00000000      -1.07628000      -0.04199320      -0.66725900
H       10.04760000       0.93252300      23.94350000       0.00000000       0.00000000       0.00000000       0.13161100      -0.18214100       1.30769000
O        2.97141000       6.00069000       2.16585000       0.00000000       0.00000000       0.00000000      -1.14015000       0.34811700      -1.22142000
H        2.03061000       5.73130000       2.00026000       0.00000000       0.00000000       0.00000000       0.97698300       0.24952000       0.18282300
H        3.15196000       5.65167000       3.03002000       0.00000000       0.00000000       0.00000000       0.22152500      -0.58268200       1.14240000
O        4.61591000       7.27788000       6.43397000       0.00000000       0.00000000       0.00000000      -0.02252400       0.03668730      -1.69153000
H        3.11898000       0.59989200      23.86140000       0.00000000       0.00000000       0.00000000       0.32624000      -0.36898700      -0.14256800
H        4.59631000       7.37673000       7.36162000       0.00000000       0.00000000       0.00000000       0.44585600      -0.11273500       2.36262000
O        9.43832000       1.70758000       1.67358000       0.00000000       0.00000000       0.00000000      -0.09734560      -0.16899100       0.74363800
H        9.71364000       1.69157000       2.60724000       0.00000000       0.00000000       0.00000000       0.20539400      -0.30964000      -0.07422540
H        9.67144000       2.62499000       1.41190000       0.00000000       0.00000000       0.00000000      -0.34047000      -0.39873000      -0.64152700
O        0.88510400       7.64530000       3.61856000       0.00000000       0.00000000       0.00000000       0.65512100       1.83022000       1.49560000
H        0.63437600       6.11036000       3.35114000       0.00000000       0.00000000       0.00000000      -0.91401600      -1.24347000      -0.78082300
H        0.89705500       7.88420000       4.62427000       0.00000000       0.00000000       0.00000000      -0.19614300      -0.31212000      -1.61476000
O        4.52391000       8.72002000       2.95123000       0.00000000       0.00000000       0.00000000      -0.82177100       0.31822900       0.15989900
H        4.57215000       7.77649000       3.13813000       0.00000000       0.00000000       0.00000000       0.67323300       0.17152800      -0.33585300
O        0.70207300       8.21311000       6.31718000       0.00000000       0.00000000       0.00000000      -0.30844500      -2.77032000       0.75861300
H        9.88069000       8.25099000       6.54134000       0.00000000       0.00000000       0.00000000       0.46012500       0.68937200      -0.16542900
H        0.91662100       7.27607000       6.68239000       0.00000000       0.00000000       0.00000000       0.21040500       1.58845000      -0.73352800
O        8.06461000       4.71005000       4.39572000       0.00000000       0.00000000       0.00000000       0.02225150      -1.70486000      -0.47919500
H        7.81550000       5.48864000       4.86239000       0.00000000       0.00000000       0.00000000      -0.68902000       1.55389000       0.75130500
H        8.95223000       4.90829000       4.07607000       0.00000000       0.00000000       0.00000000       0.66245800       0.07221430      -0.53697600
O        9.34333000       5.24478000       7.31895000       0.00000000       0.00000000       0.00000000       0.32736000       0.25873100      -0.15677300
H        8.75136000       4.58500000       6.97475000       0.00000000       0.00000000       0.00000000      -0.34328500      -1.07082000      -0.35888200
H        8.69529000       5.83481000       7.71413000       0.00000000       0.00000000       0.00000000      -0.11118700       0.68032800       0.41232400
H        5.29727000       9.14998000       2.55436000       0.00000000       0.00000000       0.00000000       0.68643600      -0.73311600       0.07231730
O        2.22326000       0.11655900       1.80315000       0.00000000       0.00000000       0.00000000       1.62133000       0.81735900       0.07113800
H        3.22639000       0.02727310       2.04019000       0.00000000       0.00000000       0.00000000      -1.38625000      -0.51249500       0.05974700
H        1.02427000       5.15130000       7.18318000       0.00000000       0.00000000       0.00000000       1.78873000       1.31127000      -0.37676400
O        1.88239000       5.67948000       6.93394000       0.00000000       0.00000000       0.00000000      -2.49535000      -1.12154000      -0.96580200
H        2.44896000       5.64462000       7.69012000       0.00000000       0.00000000       0.00000000       0.69281600      -0.10522300       1.25033000
H        7.83108000       3.89120000      27.82670000       0.00000000       0.00000000       0.00000000      -0.21543800      -0.44601100       0.47367500
O        7.15820000       7.09006000       5.36620000       0.00000000       0.00000000       0.00000000      -0.57864300       0.28308000      -0.22176000
H        6.17157000       7.07408000       5.45346000       0.00000000       0.00000000       0.00000000       1.01277000       0.22716400       0.35476200
H        7.51565000       7.87189000       5.86204000       0.00000000       0.00000000       0.00000000      -0.49319400      -0.53122000      -0.11475500
O        0.30576100       1.49176000      24.67680000       0.00000000       0.00000000       0.00000000      -0.32212600       1.03243000      -2.12276000
H        0.31376100       2.38428000      24.19130000       0.00000000       0.00000000       0.00000000       0.05792920      -0.81782100       1.18617000
O        2.76521000       2.97530000       1.94219000       0.00000000       0.00000000       0.00000000      -0.61793200      -0.51367000      -0.16329500
H        2.72836000       3.24201000       0.99923900       0.00000000       0.00000000       0.00000000      -0.08582450       0.43922900       0.18434900
H        1.80406000       3.82055000      27.69330000       0.00000000       0.00000000       0.00000000       0.09419140       0.06415960       0.96723400
O        1.70027000       3.07466000      27.09670000       0.00000000       0.00000000       0.00000000       0.75221800       1.31672000      -1.98635000
H        1.20580000       1.86528000       4.75151000       0.00000000       0.00000000       0.00000000      -0.03391250       0.59895400      -0.71925600
H        1.97018000       3.55482000      26.24880000       0.00000000       0.00000000       0.00000000      -0.42491000      -1.33674000       0.93394700
O        0.89163900       2.20295000       3.87952000       0.00000000       0.00000000       0.00000000      -0.25455000      -0.31853800       0.79231700
H        3.60005000       3.28731000       2.31121000       0.00000000       0.00000000       0.00000000       0.44787100      -0.18151500       0.02799340
H        1.64504000       2.45125000       3.32194000       0.00000000       0.00000000       0.00000000       0.27589800      -0.00360289       0.12696200
O        7.08373000       6.89776000      29.57590000       0.00000000       0.00000000       0.00000000      -0.89479600       0.17335400      -1.01505000
H        6.62667000       7.04782000      28.67490000       0.00000000       0.00000000       0.00000000       1.36749000      -0.18225000       1.35505000
H        7.94339000       7.37809000      29.52640000       0.00000000       0.00000000       0.00000000      -0.64582200      -0.07270900      -0.38824800
O        3.13168000       4.73062000       4.56417000       0.00000000       0.00000000       0.00000000      -0.79319800       0.70228800       0.51979700
H        3.75892000       4.04034000       4.63713000       0.00000000       0.00000000       0.00000000       1.24410000      -1.12758000      -0.50073100
H        3.65707000       1.11410000      26.20260000       0.00000000       0.00000000       0.00000000      -0.35500200      -0.35783100      -0.67112100
O        4.14407000       1.30936000      27.00900000       0.00000000       0.00000000       0.00000000       1.14246000       0.03693820       0.83889600
H        3.11152000       6.40395000      26.14170000       0.00000000       0.00000000       0.00000000       0.89005500       0.02226660      -0.22312900
O        3.91234000       6.37835000      25.53490000       0.00000000       0.00000000       0.00000000      -0.40115000      -0.22990400       1.35532000
H        2.92561000       4.88569000       5.49937000       0.00000000       0.00000000       0.00000000      -0.57182400       0.60331400      -0.01305190
H        3.54879000       6.82669000      24.78440000       0.00000000       0.00000000       0.00000000      -0.26480000       0.37548100      -1.01915000
O        7.15244000       3.06628000       6.37110000       0.00000000       0.00000000       0.00000000      -0.23556300      -0.58628500      -0.86516500