246
Lattice="10.140377177804453 0.0 0.0 0.0 8.781824239934606 0.0 0.0 0.0 30.1311271579" Properties=species:S:1:pos:R:3:momenta:R:3:forces:R:3 target_atoms="0 1 2 3 4 5 6 7 8 9 10 11 12 13 14 15 16 17 18 19 20 21 22 23 24 25 26 27 28 29 30 31 32 33 34 35 36 37 38 39 40 41 42 43 44 45 46 47 48 49 50 51 52 53 54 55 56 57 58 59 60 61 62 63 64 65 66 67 68 69 70 71 72 73 74 75 76 77 78 79 80 81 82 83 84 85 86 87 88 89 90 91 92 93 94 95 96 97 98 99 100 101 102 103 104 105 106 107 108 109 110 111 112 113 114 115 116 117 118 119 120 121 122 123 124 125 126 127 128 129 130 131 132 133 134 135 136 137 138 139 140 141 142 143 144 145 146 147 148 149 150 151 152 153 154 155 156 157 158 159 160 161 162 163 164 165 166 167 168 169 170 171 172 173 174 175 176 177 178 179 180 181 182 183 184 185 186 187 188 189 190 191 192 193 194 195 196 197 198 199 200 201 202 203 204 205 206 207 208 209 210 211 212 213 214 215 216 217 218 219 220 221 222 223 224 225 226 227 228 229 230 231 232 233 234 235 236 237 238 239 240 241 242 243 244 245" step=0 energy=-1803.0815543798576 pbc="T T T"
Cu       6.94726000       1.02803000       9.90667000       0.00000000       0.00000000       0.00000000       0.29428800       0.31751700      -0.17588900
Cu       9.63207000       1.07990000       9.94744000       0.00000000       0.00000000       0.00000000      -0.57067800      -0.05685680      -0.08409110
Cu       1.93891000       1.19875000      10.06110000       0.00000000       0.00000000       0.00000000      -0.48428600      -0.76498500      -0.87164400
Cu       4.29389000       1.11184000       9.67207000       0.00000000       0.00000000       0.00000000       0.66405000      -0.18401000       0.43531700
Cu       8.30839000       3.28426000       9.78431000       0.00000000       0.00000000       0.00000000      -0.04301780      -0.49888400       0.25210700
Cu       0.64384000       3.26238000       9.98916000       0.00000000       0.00000000       0.00000000       0.19028200       0.30573200      -0.20893100
Cu       3.17400000       3.35965000       9.99343000       0.00000000       0.00000000       0.00000000      -0.12184400      -0.17209600      -0.25991800
Cu       5.66819000       3.20225000       9.70985000       0.00000000       0.00000000       0.00000000       0.16043200      -0.00132402       0.26468900
Cu       9.55723000       5.41854000       9.95463000       0.00000000       0.00000000       0.00000000      -0.18980800       0.25633500      -0.01863640
Cu       1.92799000       5.52916000       9.96342000       0.00000000       0.00000000       0.00000000       0.11547200      -0.16359400       0.18436700
Cu       4.51541000       5.40761000       9.90387000       0.00000000       0.00000000       0.00000000      -0.39520300       0.32708600      -0.01307510
Cu       6.92528000       5.28605000       9.76708000       0.00000000       0.00000000       0.00000000       0.41884700       0.74153500       0.36671600
Cu       0.68290000       7.66045000      10.00730000       0.00000000       0.00000000       0.00000000      -0.06687160       0.09975370      -0.11024000
Cu       3.28297000       7.64275000      10.03680000       0.00000000       0.00000000       0.00000000      -0.34998600      -0.09704970      -0.01962790
Cu       5.72544000       7.73404000       9.76232000       0.00000000       0.00000000       0.00000000       0.01221650      -0.44976300       0.32994700
Cu       8.31960000       7.70459000       9.90751000       0.00000000       0.00000000       0.00000000      -0.15980900      -0.04731010      -0.02914220
Cu       5.55828000       1.78976000      11.76950000       0.00000000       0.00000000       0.00000000       0.86401800      -0.16994000       0.48924700
Cu       8.19926000       1.71977000      11.95390000       0.00000000       0.00000000       0.00000000       0.01867600       0.17930900      -0.16538200
Cu       0.61821900       1.81712000      12.01380000       0.00000000       0.00000000       0.00000000       0.14376500       0.00923203       0.10421600
Cu       3.16795000       1.70786000      11.92150000       0.00000000       0.00000000       0.00000000       0.02354190       0.68372500       0.72013800
Cu       7.07806000       3.81459000      11.84380000       0.00000000       0.00000000       0.00000000      -0.51127400       0.87981100       0.21839600
Cu       9.58962000       3.98208000      12.00190000       0.00000000       0.00000000       0.00000000      -0.77583100       0.08863330      -0.13625700
Cu       1.89984000       4.04004000      12.05540000       0.00000000       0.00000000       0.00000000       0.23854100      -0.30052500      -0.51141100
Cu       4.50111000       3.90069000      11.95000000       0.00000000       0.00000000       0.00000000      -0.02132820       0.71571400       0.14045300
Cu       8.15528000       6.26842000      11.82910000       0.00000000       0.00000000       0.00000000       0.46116400      -0.64943900       0.51661000
Cu       0.56045600       6.19603000      12.02270000       0.00000000       0.00000000       0.00000000       0.26266700       0.15633900      -0.22175900
Cu       3.21995000       6.11335000      12.10130000       0.00000000       0.00000000       0.00000000      -0.02069350       0.45310000      -0.98717100
Cu       5.74262000       6.22341000      11.87030000       0.00000000       0.00000000       0.00000000      -0.40639600      -0.64994100       0.17448400
Cu       9.50491000       8.47883000      12.08880000       0.00000000       0.00000000       0.00000000      -0.11923900      -0.68975800      -0.82082200
Cu       1.89147000       8.35796000      12.00530000       0.00000000       0.00000000       0.00000000       0.15130400      -0.03076960      -0.06176580
Cu       4.48101000       8.42663000      12.01620000       0.00000000       0.00000000       0.00000000      -0.54560700      -0.42727100      -0.34758800
Cu       6.84106000       8.31726000      11.95190000       0.00000000       0.00000000       0.00000000       0.92126400       0.78469500      -0.07650860
Cu       5.70396000       0.36590900      14.03060000       0.00000000       0.00000000       0.00000000       0.00000000       0.00000000       0.00000000
Cu       8.23906000       0.36590900      14.03060000       0.00000000       0.00000000       0.00000000       0.00000000       0.00000000       0.00000000
Cu       0.63377400       0.36590900      14.03060000       0.00000000       0.00000000       0.00000000       0.00000000       0.00000000       0.00000000
Cu       3.16887000       0.36590900      14.03060000       0.00000000       0.00000000       0.00000000       0.00000000       0.00000000       0.00000000
Cu       6.97151000       2.56137000      14.03060000       0.00000000       0.00000000       0.00000000       0.00000000       0.00000000       0.00000000
Cu       9.50660000       2.56137000      14.03060000       0.00000000       0.00000000       0.00000000       0.00000000       0.00000000       0.00000000
Cu       1.90132000       2.56137000      14.03060000       0.00000000       0.00000000       0.00000000       0.00000000       0.00000000       0.00000000
Cu       4.43642000       2.56137000      14.03060000       0.00000000       0.00000000       0.00000000       0.00000000       0.00000000       0.00000000
Cu       8.23906000       4.75682000      14.03060000       0.00000000       0.00000000       0.00000000       0.00000000       0.00000000       0.00000000
Cu       0.63377400       4.75682000      14.03060000       0.00000000       0.00000000       0.00000000       0.00000000       0.00000000       0.00000000
Cu       3.16887000       4.75682000      14.03060000       0.00000000       0.00000000       0.00000000       0.00000000       0.00000000       0.00000000
Cu       5.70396000       4.75682000      14.03060000       0.00000000       0.00000000       0.00000000       0.00000000       0.00000000       0.00000000
Cu       9.50660000       6.95228000      14.03060000       0.00000000       0.00000000       0.00000000       0.00000000       0.00000000       0.00000000
Cu       1.90132000       6.95228000      14.03060000       0.00000000       0.00000000       0.00000000       0.00000000       0.00000000       0.00000000
Cu       4.43642000       6.95228000      14.03060000       0.00000000       0.00000000       0.00000000       0.00000000       0.00000000       0.00000000
Cu       6.97151000       6.95228000      14.03060000       0.00000000       0.00000000       0.00000000       0.00000000       0.00000000       0.00000000
Cu       6.97151000       1.09773000      16.10050000       0.00000000       0.00000000       0.00000000       0.00000000       0.00000000       0.00000000
Cu       9.50660000       1.09773000      16.10050000       0.00000000       0.00000000       0.00000000       0.00000000       0.00000000       0.00000000
Cu       1.90132000       1.09773000      16.10050000       0.00000000       0.00000000       0.00000000       0.00000000       0.00000000       0.00000000
Cu       4.43642000       1.09773000      16.10050000       0.00000000       0.00000000       0.00000000       0.00000000       0.00000000       0.00000000
Cu       8.23906000       3.29318000      16.10050000       0.00000000       0.00000000       0.00000000       0.00000000       0.00000000       0.00000000
Cu       0.63377400       3.29318000      16.10050000       0.00000000       0.00000000       0.00000000       0.00000000       0.00000000       0.00000000
Cu       3.16887000       3.29318000      16.10050000       0.00000000       0.00000000       0.00000000       0.00000000       0.00000000       0.00000000
Cu       5.70396000       3.29318000      16.10050000       0.00000000       0.00000000       0.00000000       0.00000000       0.00000000       0.00000000
Cu       9.50660000       5.48864000      16.10050000       0.00000000       0.00000000       0.00000000       0.00000000       0.00000000       0.00000000
Cu       1.90132000       5.48864000      16.10050000       0.00000000       0.00000000       0.00000000       0.00000000       0.00000000       0.00000000
Cu       4.43642000       5.48864000      16.10050000       0.00000000       0.00000000       0.00000000       0.00000000       0.00000000       0.00000000
Cu       6.97151000       5.48864000      16.10050000       0.00000000       0.00000000       0.00000000       0.00000000       0.00000000       0.00000000
Cu       0.63377400       7.68410000      16.10050000       0.00000000       0.00000000       0.00000000       0.00000000       0.00000000       0.00000000
Cu       3.16887000       7.68410000      16.10050000       0.00000000       0.00000000       0.00000000       0.00000000       0.00000000       0.00000000
Cu       5.70396000       7.68410000      16.10050000       0.00000000       0.00000000       0.00000000       0.00000000       0.00000000       0.00000000
Cu       8.23906000       7.68410000      16.10050000       0.00000000       0.00000000       0.00000000       0.00000000       0.00000000       0.00000000
Cu       5.48551000       1.90417000      18.23970000       0.00000000       0.00000000       0.00000000       0.98779300      -0.17724700      -0.34156300
Cu       8.16589000       1.86447000      18.19220000       0.00000000       0.00000000       0.00000000      -0.13423100       0.31469800      -0.17165300
Cu       0.56592500       1.79507000      18.14770000       0.00000000       0.00000000       0.00000000       0.07857960       0.34899400       0.01059230
Cu       3.05158000       1.75239000      18.19000000       0.00000000       0.00000000       0.00000000       0.13909900       0.74025400       0.20842800
Cu       7.03581000       3.98885000      18.20400000       0.00000000       0.00000000       0.00000000      -0.47537500       0.47870100       0.10357100
Cu       9.54536000       4.07146000      18.17960000       0.00000000       0.00000000       0.00000000      -0.41188200      -0.25035700       0.16815900
Cu       1.88777000       4.12613000      18.07650000       0.00000000       0.00000000       0.00000000       0.18037900      -0.50379800       0.69211500
Cu       4.48554000       4.06227000      18.12810000       0.00000000       0.00000000       0.00000000      -0.51872700       0.17191800       0.27444600
Cu       8.13444000       6.26666000      18.38570000       0.00000000       0.00000000       0.00000000      -0.12930100       0.06500760      -1.11177000
Cu       0.53070400       6.20984000      18.17200000       0.00000000       0.00000000       0.00000000       0.18203800       0.68721700       0.34425100
Cu       3.15637000       6.28109000      18.27770000       0.00000000       0.00000000       0.00000000      -0.18252000      -0.17326900       0.05994080
Cu       5.61011000       6.30676000      18.20610000       0.00000000       0.00000000       0.00000000       0.39095600      -0.24533700       0.01326080
Cu       9.35271000       8.56939000      18.20120000       0.00000000       0.00000000       0.00000000       0.77815000      -1.21973000      -0.35721400
Cu       1.90803000       8.39040000      18.18640000       0.00000000       0.00000000       0.00000000      -0.50215600      -0.07304390       0.19419400
Cu       4.46761000       8.44954000      18.19810000       0.00000000       0.00000000       0.00000000      -0.52996300      -0.07751470       0.12581300
Cu       6.91785000       8.54471000      18.11430000       0.00000000       0.00000000       0.00000000      -0.18035800      -0.63210200       0.36738300
Cu       5.73447000       0.44058100      20.20930000       0.00000000       0.00000000       0.00000000      -0.41739900      -0.30582700       0.27219100
Cu       8.20083000       0.36460900      20.19070000       0.00000000       0.00000000       0.00000000      -0.73354200       0.25601400       0.46235800
Cu       0.46734900       0.39514700      20.25980000       0.00000000       0.00000000       0.00000000       0.46055400      -0.00533964      -0.14411600
Cu       3.08228000       0.40215500      20.29650000       0.00000000       0.00000000       0.00000000      -0.10718000       0.23187000      -0.21126700
Cu       6.89453000       2.59336000      20.32620000       0.00000000       0.00000000       0.00000000      -0.02105300       0.22160200      -0.20718100
Cu       9.31743000       2.60319000      20.23160000       0.00000000       0.00000000       0.00000000       0.23483500       0.13051600       0.03108890
Cu       1.60903000       2.63970000      20.16720000       0.00000000       0.00000000       0.00000000       0.91310500      -0.35618500       0.00914011
Cu       4.43873000       2.62512000      20.30260000       0.00000000       0.00000000       0.00000000      -0.43930500      -0.29099500      -0.12517900
Cu       8.14231000       4.85634000      20.34700000       0.00000000       0.00000000       0.00000000       0.02738150      -0.78447100      -0.03795050
Cu       0.58274600       4.77527000      20.29570000       0.00000000       0.00000000       0.00000000      -0.27444000       0.45628500      -0.19050000
Cu       3.14705000       4.65692000      20.24690000       0.00000000       0.00000000       0.00000000      -0.45366500       0.57491700      -0.15169500
Cu       5.57474000       4.84812000      20.25000000       0.00000000       0.00000000       0.00000000      -0.01533140      -0.71797600      -0.01282080
Cu       9.23935000       7.00065000      20.32120000       0.00000000       0.00000000       0.00000000       0.98007300       0.01565240       0.15951700
Cu       1.68003000       7.02263000      20.38050000       0.00000000       0.00000000       0.00000000       0.33698400      -0.21833900      -0.50108800
Cu       4.31422000       7.10206000      20.48590000       0.00000000       0.00000000       0.00000000      -0.27578100      -0.41828800      -0.61865200
Cu       6.71617000       6.83370000      20.41900000       0.00000000       0.00000000       0.00000000       0.64099300       1.25036000      -0.27630100
O        6.16762000       4.73503000      25.55430000       0.00000000       0.00000000       0.00000000       0.31791700      -0.70037400      -0.41212400
H        5.75102000       5.28705000      24.85520000       0.00000000       0.00000000       0.00000000       0.23410200      -0.09204500       0.11541800
H        6.32569000       3.85778000      25.11500000       0.00000000       0.00000000       0.00000000      -0.42841200       0.67024800       0.34795500
O        5.00864000       2.04189000      29.25270000       0.00000000       0.00000000       0.00000000       1.82810000      -1.40145000       0.64867800
H        4.92834000       1.74086000      28.33410000       0.00000000       0.00000000       0.00000000       0.10580000       0.09422420       0.02835880
H        5.78700000       1.42468000      29.61430000       0.00000000       0.00000000       0.00000000      -1.77309000       1.23985000      -0.78492200
O        7.86391000       1.10317000       3.22086000       0.00000000       0.00000000       0.00000000      -1.30848000       1.47391000      -1.88315000
H        3.56987000       1.71012000      25.07920000       0.00000000       0.00000000       0.00000000       0.01375910       0.96101700      -0.65992800
H        7.49370000       1.71659000       3.87305000       0.00000000       0.00000000       0.00000000       0.26712200      -0.40515200       0.73874600
O        0.89072900       4.49770000      29.71170000       0.00000000       0.00000000       0.00000000       1.15951000      -2.69642000      -0.88061800
H        0.55145200       4.28730000       0.46190000       0.00000000       0.00000000       0.00000000      -0.32366700       0.27062800       0.37982500
H        1.21194000       3.57013000      29.40930000       0.00000000       0.00000000       0.00000000      -0.68083400       2.32349000       0.53179400
O        8.24719000       6.23955000      26.36600000       0.00000000       0.00000000       0.00000000      -1.25730000       0.13046800      -1.50826000
H        7.58747000       5.62526000      25.91180000       0.00000000       0.00000000       0.00000000       0.60417600       0.25268400       0.83848400
H        8.03088000       7.06927000      25.83590000       0.00000000       0.00000000       0.00000000       0.51379100      -0.41058900       0.77688900
O        0.03044110       0.16483900      29.18030000       0.00000000       0.00000000       0.00000000       0.74367400      -2.16703000      -0.99878400
H        4.07622000       0.54189500       3.74591000       0.00000000       0.00000000       0.00000000      -0.61309400      -0.12540500      -0.27192000
H        0.97754800       8.68996000      29.06070000       0.00000000       0.00000000       0.00000000      -0.80079300       0.23550000       0.07141550
O        1.08201000       7.09539000       5.40801000       0.00000000       0.00000000       0.00000000      -0.84867100      -0.60928900       0.43278400
H        8.55711000       5.14111000       6.40727000       0.00000000       0.00000000       0.00000000       0.11645600       0.23355500       0.16793500
H        1.71529000       6.56430000       4.91768000       0.00000000       0.00000000       0.00000000       0.65693300      -0.44257500      -0.56124700
O        3.34206000       0.55973600       3.08026000       0.00000000       0.00000000       0.00000000      -0.73556900       1.59473000       1.36755000
H        0.44842500       7.82514000      26.39820000       0.00000000       0.00000000       0.00000000       0.09581970      -0.51367900       0.73043000
H        2.70695000       1.23393000       3.52147000       0.00000000       0.00000000       0.00000000       1.20380000      -1.35553000      -1.02707000
O        6.68483000       4.53729000      28.51620000       0.00000000       0.00000000       0.00000000      -0.24894600      -1.04534000      -0.88595500
H        6.77536000       4.40199000      27.54120000       0.00000000       0.00000000       0.00000000      -0.11174000       0.31419000       0.76616000
H        5.34984000       5.64666000      -0.05574060       0.00000000       0.00000000       0.00000000      -0.15385800      -0.07831490       0.79790100
O        4.98623000       5.51946000       0.84456900       0.00000000       0.00000000       0.00000000      -0.08332630       1.21899000       0.25348500
H        5.16319000       6.34397000       1.38777000       0.00000000       0.00000000       0.00000000       0.25257100      -1.19207000      -0.86418000
H        4.54456000       3.81276000       3.95209000       0.00000000       0.00000000       0.00000000      -0.35532000      -0.34794500      -0.84275900
O        0.21156600       8.64728000      25.97110000       0.00000000       0.00000000       0.00000000       2.14243000       0.94000500      -2.42718000
H        0.98805800       8.78363000      25.28440000       0.00000000       0.00000000       0.00000000      -2.33381000      -0.54294400       1.86625000
H       10.01670000       0.40315900      23.43880000       0.00000000       0.00000000       0.00000000      -0.29826400       0.16262400      -0.13631400
O        6.79357000       7.35875000       5.22270000       0.00000000       0.00000000       0.00000000      -0.37999700      -0.35755100      -0.06955630
H        6.78944000       6.48601000       5.69841000       0.00000000       0.00000000       0.00000000      -0.32792400       0.48014800      -0.18955700
H        6.00564000       7.86539000       5.48788000       0.00000000       0.00000000       0.00000000      -0.22762200      -0.03178310       0.05669930
O        9.36255000       5.55995000       6.75880000       0.00000000       0.00000000       0.00000000       0.06523120      -0.16857800      -0.21695200
H       -0.01947690       0.98494900      29.61200000       0.00000000       0.00000000       0.00000000       0.04201500       1.76403000       0.89470700
H        9.15305000       5.72560000       7.69162000       0.00000000       0.00000000       0.00000000       0.00619383       0.00949199       0.09392980
O        2.43736000       2.96540000      27.65130000       0.00000000       0.00000000       0.00000000      -2.12388000       1.92549000       0.10685300
H        1.67290000       3.35605000      27.13880000       0.00000000       0.00000000       0.00000000       0.88941400      -0.53463700       1.00437000
H        2.68471000       2.26427000      27.07200000       0.00000000       0.00000000       0.00000000       0.85731600      -1.52431000      -0.90790200
O        3.60046000       1.25182000      25.91890000       0.00000000       0.00000000       0.00000000      -0.08840250      -1.48080000      -0.24108300
H        0.58546700       6.46361000       5.98738000       0.00000000       0.00000000       0.00000000      -0.17744000       0.32088500      -0.41509000
H        3.52986000       0.33271000      25.57410000       0.00000000       0.00000000       0.00000000       0.03848930       0.26950000       0.87237400
O        4.74572000       0.50470200       5.49732000       0.00000000       0.00000000       0.00000000       0.26226100      -0.32762600      -0.55180500
H        5.38204000       1.17880000       5.76900000       0.00000000       0.00000000       0.00000000       0.11426700       0.29402300       0.34017700
O        2.62369000       4.49172000       6.46316000       0.00000000       0.00000000       0.00000000       0.11495500      -1.11346000       0.88406800
H        2.13764000       3.63331000       6.57629000       0.00000000       0.00000000       0.00000000       0.06178060       0.78707100      -0.15441700
H        3.20675000       4.49585000       7.25874000       0.00000000       0.00000000       0.00000000      -0.53609300       0.19445400      -0.48837200
O        7.13453000       1.98693000       6.02384000       0.00000000       0.00000000       0.00000000      -1.58433000       0.68427700      -0.85073400
H        7.89135000       1.49513000       6.30120000       0.00000000       0.00000000       0.00000000       1.28594000      -0.86943500       0.23562500
H        7.31163000       2.92672000       6.10142000       0.00000000       0.00000000       0.00000000       0.06970970       0.22697800       0.32644000
O        2.69650000       1.80903000       0.79261400       0.00000000       0.00000000       0.00000000      -0.77032400      -0.02572950       0.59636200
H        3.23946000       1.85105000       0.02440850       0.00000000       0.00000000       0.00000000       0.92006600       0.30406600      -1.53229000
H        3.32291000       1.45385000       1.44121000       0.00000000       0.00000000       0.00000000      -0.27648900      -0.45075200       0.63379100
H        4.01279000       0.41996000       6.12718000       0.00000000       0.00000000       0.00000000      -0.06609900      -0.10164300       0.32253700
O        4.68996000       4.07912000       4.84898000       0.00000000       0.00000000       0.00000000       2.70977000      -0.03068620      -0.30535600
H        3.86020000       4.07356000       5.27596000       0.00000000       0.00000000       0.00000000      -1.97162000       0.29625500       1.09487000
H        8.08257000       3.25561000      29.57420000       0.00000000       0.00000000       0.00000000       0.15306200      -0.08511680       0.28922700
O        8.62666000       2.46334000      29.44560000       0.00000000       0.00000000       0.00000000      -0.16406500       0.12026500      -0.14199300
H        8.82097000       2.51354000      28.49430000       0.00000000       0.00000000       0.00000000       0.23107400      -0.13625400       0.08547050
H        6.35313000       3.65023000      28.78650000       0.00000000       0.00000000       0.00000000      -0.18362100       0.45148900       0.06457140
O        1.08586000       6.85612000       1.45008000       0.00000000       0.00000000       0.00000000       0.27491400      -0.41777900       1.87250000
H        0.69135100       7.55240000       2.00977000       0.00000000       0.00000000       0.00000000      -0.17312500       0.29047700      -0.30365500
H        1.01624000       7.04932000       0.53702900       0.00000000       0.00000000       0.00000000      -0.28668200       0.50603700      -1.36727000
O        9.16178000       0.90240100      23.47920000       0.00000000       0.00000000       0.00000000       0.36956500      -0.01393350       1.70128000
H        8.94907000       1.12939000      22.58980000       0.00000000       0.00000000       0.00000000      -0.30531900       0.13252200      -1.74513000
O        3.38967000       3.74827000       2.44443000       0.00000000       0.00000000       0.00000000      -0.27608300       0.05443320       0.84002500
H        3.88792000       4.43265000       2.02200000       0.00000000       0.00000000       0.00000000       0.92007100       0.84645200      -0.92948800
H        1.10451000       5.85654000      23.08860000       0.00000000       0.00000000       0.00000000       0.32341900      -0.17117800       0.00238962
O        1.45447000       5.27414000      23.78660000       0.00000000       0.00000000       0.00000000       0.55499300       0.77659000      -0.38778700
H        6.93501000       3.76691000       2.08821000       0.00000000       0.00000000       0.00000000      -0.52576100      -0.11826600      -0.30034000
H        0.72923800       4.67097000      23.90910000       0.00000000       0.00000000       0.00000000      -1.09826000      -0.62817400       0.36427800
O        6.56674000       3.04482000       1.50366000       0.00000000       0.00000000       0.00000000       1.23651000      -0.20812600       0.36804000
H        2.98133000       3.28748000       1.70002000       0.00000000       0.00000000       0.00000000      -0.40319000      -0.63013500      -0.29786900
H        5.63332000       3.20208000       1.40728000       0.00000000       0.00000000       0.00000000      -0.41460400       0.30099700       0.01000920
O        2.72745000       7.84166000      29.01980000       0.00000000       0.00000000       0.00000000       0.50962000       1.68091000       2.04504000
H        3.22269000       8.10109000      29.85010000       0.00000000       0.00000000       0.00000000      -0.93660700      -0.26887300      -1.39562000
H        3.12987000       7.02104000      28.78890000       0.00000000       0.00000000       0.00000000       0.38660500      -1.49384000      -0.61893600
O        7.14916000       8.27580000      24.93730000       0.00000000       0.00000000       0.00000000       0.29371000       0.34968800      -0.11258300
H        6.74907000       7.67102000      24.27400000       0.00000000       0.00000000       0.00000000      -0.24546600       0.44221800       0.09023300
H        0.58071400       5.53033000      28.22690000       0.00000000       0.00000000       0.00000000       0.09324020      -0.40583800       0.88855000
O        0.48409800       6.17791000      27.53370000       0.00000000       0.00000000       0.00000000      -0.18320700       0.21704000      -1.14405000
H        2.89643000       5.56692000       2.96619000       0.00000000       0.00000000       0.00000000      -0.21550500      -0.02300980       0.15218600
O        2.94857000       6.35751000       3.52017000       0.00000000       0.00000000       0.00000000      -0.58708000       1.30826000      -0.63287300
H        7.74098000       8.92629000      24.49580000       0.00000000       0.00000000       0.00000000       0.05488630      -0.75583300      -0.16592400
H        2.58419000       7.10590000       2.96142000       0.00000000       0.00000000       0.00000000       0.81517000      -1.22478000       0.78329800
O        9.55681000       2.40655000      26.69000000       0.00000000       0.00000000       0.00000000      -0.10719600      -0.23573700       0.05584050