246
Lattice="10.140377177804453 0.0 0.0 0.0 8.781824239934606 0.0 0.0 0.0 30.1311271579" Properties=species:S:1:pos:R:3:momenta:R:3:forces:R:3 target_atoms="0 1 2 3 4 5 6 7 8 9 10 11 12 13 14 15 16 17 18 19 20 21 22 23 24 25 26 27 28 29 30 31 32 33 34 35 36 37 38 39 40 41 42 43 44 45 46 47 48 49 50 51 52 53 54 55 56 57 58 59 60 61 62 63 64 65 66 67 68 69 70 71 72 73 74 75 76 77 78 79 80 81 82 83 84 85 86 87 88 89 90 91 92 93 94 95 96 97 98 99 100 101 102 103 104 105 106 107 108 109 110 111 112 113 114 115 116 117 118 119 120 121 122 123 124 125 126 127 128 129 130 131 132 133 134 135 136 137 138 139 140 141 142 143 144 145 146 147 148 149 150 151 152 153 154 155 156 157 158 159 160 161 162 163 164 165 166 167 168 169 170 171 172 173 174 175 176 177 178 179 180 181 182 183 184 185 186 187 188 189 190 191 192 193 194 195 196 197 198 199 200 201 202 203 204 205 206 207 208 209 210 211 212 213 214 215 216 217 218 219 220 221 222 223 224 225 226 227 228 229 230 231 232 233 234 235 236 237 238 239 240 241 242 243 244 245" step=0 energy=-1801.244137453897 pbc="T T T"
Cu       7.08064000       1.05592000       9.82230000       0.00000000       0.00000000       0.00000000      -0.06859110       0.13885200       0.27671600
Cu       9.54707000       1.15436000       9.87831000       0.00000000       0.00000000       0.00000000       0.12287700      -0.03815100       0.10937800
Cu       2.11798000       1.02757000       9.67249000       0.00000000       0.00000000       0.00000000      -0.46622800       0.41372900      -0.23091800
Cu       4.65823000       1.04581000       9.83627000       0.00000000       0.00000000       0.00000000      -0.70800900      -0.42928300       0.05485350
Cu       8.13710000       3.35301000       9.89240000       0.00000000       0.00000000       0.00000000       0.39377500      -0.30323000       0.04972000
Cu       0.69938500       3.44050000       9.86015000       0.00000000       0.00000000       0.00000000      -0.15285400      -0.75304000      -0.09493010
Cu       3.20000000       3.43427000       9.89423000       0.00000000       0.00000000       0.00000000      -0.07255580      -0.10168100       0.04136290
Cu       5.63547000       3.18524000       9.96226000       0.00000000       0.00000000       0.00000000       0.56549700       0.72589900       0.14373200
Cu       9.47180000       5.46864000       9.92413000       0.00000000       0.00000000       0.00000000       0.33678000       0.53191900      -0.11215400
Cu       1.84187000       5.57665000       9.91274000       0.00000000       0.00000000       0.00000000       0.13262900      -0.38437200       0.19462400
Cu       4.54151000       5.54569000       9.97371000       0.00000000       0.00000000       0.00000000      -0.34421700      -0.26530500      -0.02769210
Cu       7.07382000       5.54144000      10.02080000       0.00000000       0.00000000       0.00000000      -0.51329400      -0.21764500      -0.23551700
Cu       0.57638900       7.70821000       9.87979000       0.00000000       0.00000000       0.00000000       0.24111500      -0.09764440       0.27092000
Cu       3.10845000       7.54646000       9.68660000       0.00000000       0.00000000       0.00000000       0.64707500       0.47997100       0.67149100
Cu       5.82299000       7.67099000      10.00340000       0.00000000       0.00000000       0.00000000      -0.41917100       0.09538860      -0.38007500
Cu       8.24422000       7.65610000       9.86448000       0.00000000       0.00000000       0.00000000       0.34548300       0.28169100       0.33065000
Cu       5.68957000       1.76791000      11.97930000       0.00000000       0.00000000       0.00000000       0.42227300       0.28762200      -0.01627880
Cu       8.25878000       1.86540000      11.86280000       0.00000000       0.00000000       0.00000000       0.02111790      -0.04857310       0.47827100
Cu       0.70404800       1.76673000      11.90900000       0.00000000       0.00000000       0.00000000      -0.04174780       0.57608700      -0.21414000
Cu       3.24977000       1.83726000      11.74230000       0.00000000       0.00000000       0.00000000      -0.15279100       0.06134200       0.51828000
Cu       7.08147000       4.12818000      12.01320000       0.00000000       0.00000000       0.00000000      -0.51336800      -0.65357700      -0.21549400
Cu       9.61103000       4.07170000      11.87050000       0.00000000       0.00000000       0.00000000      -0.30387700      -0.53351200       0.50909300
Cu       1.94392000       3.98745000      12.01820000       0.00000000       0.00000000       0.00000000      -0.07424840      -0.16153300      -0.45064100
Cu       4.45789000       4.01888000      12.01800000       0.00000000       0.00000000       0.00000000       0.19904100       0.04551040      -0.27242200
Cu       8.37284000       6.25099000      12.07460000       0.00000000       0.00000000       0.00000000      -0.41723900       0.14620000      -0.67475500
Cu       0.75392600       6.20508000      12.08740000       0.00000000       0.00000000       0.00000000      -0.85791900       0.42012100      -0.92412400
Cu       3.08864000       6.15817000      12.05530000       0.00000000       0.00000000       0.00000000       1.00221000       0.46309400      -0.78984500
Cu       5.70798000       6.22376000      11.97100000       0.00000000       0.00000000       0.00000000       0.10936700      -0.10269400       0.39013400
Cu       9.56209000       8.43627000      11.93070000       0.00000000       0.00000000       0.00000000      -0.13940300      -0.01381860       0.08405300
Cu       2.02648000       8.53793000      11.80880000       0.00000000       0.00000000       0.00000000      -0.46307000      -0.80784600       0.18845900
Cu       4.43444000       8.34237000      11.94490000       0.00000000       0.00000000       0.00000000      -0.07651670       0.16829000      -0.17831600
Cu       6.95303000       8.42170000      12.05080000       0.00000000       0.00000000       0.00000000       0.48915400       0.00556293      -0.50482200
Cu       5.70396000       0.36590900      14.03060000       0.00000000       0.00000000       0.00000000       0.00000000       0.00000000       0.00000000
Cu       8.23906000       0.36590900      14.03060000       0.00000000       0.00000000       0.00000000       0.00000000       0.00000000       0.00000000
Cu       0.63377400       0.36590900      14.03060000       0.00000000       0.00000000       0.00000000       0.00000000       0.00000000       0.00000000
Cu       3.16887000       0.36590900      14.03060000       0.00000000       0.00000000       0.00000000       0.00000000       0.00000000       0.00000000
Cu       6.97151000       2.56137000      14.03060000       0.00000000       0.00000000       0.00000000       0.00000000       0.00000000       0.00000000
Cu       9.50660000       2.56137000      14.03060000       0.00000000       0.00000000       0.00000000       0.00000000       0.00000000       0.00000000
Cu       1.90132000       2.56137000      14.03060000       0.00000000       0.00000000       0.00000000       0.00000000       0.00000000       0.00000000
Cu       4.43642000       2.56137000      14.03060000       0.00000000       0.00000000       0.00000000       0.00000000       0.00000000       0.00000000
Cu       8.23906000       4.75682000      14.03060000       0.00000000       0.00000000       0.00000000       0.00000000       0.00000000       0.00000000
Cu       0.63377400       4.75682000      14.03060000       0.00000000       0.00000000       0.00000000       0.00000000       0.00000000       0.00000000
Cu       3.16887000       4.75682000      14.03060000       0.00000000       0.00000000       0.00000000       0.00000000       0.00000000       0.00000000
Cu       5.70396000       4.75682000      14.03060000       0.00000000       0.00000000       0.00000000       0.00000000       0.00000000       0.00000000
Cu       9.50660000       6.95228000      14.03060000       0.00000000       0.00000000       0.00000000       0.00000000       0.00000000       0.00000000
Cu       1.90132000       6.95228000      14.03060000       0.00000000       0.00000000       0.00000000       0.00000000       0.00000000       0.00000000
Cu       4.43642000       6.95228000      14.03060000       0.00000000       0.00000000       0.00000000       0.00000000       0.00000000       0.00000000
Cu       6.97151000       6.95228000      14.03060000       0.00000000       0.00000000       0.00000000       0.00000000       0.00000000       0.00000000
Cu       6.97151000       1.09773000      16.10050000       0.00000000       0.00000000       0.00000000       0.00000000       0.00000000       0.00000000
Cu       9.50660000       1.09773000      16.10050000       0.00000000       0.00000000       0.00000000       0.00000000       0.00000000       0.00000000
Cu       1.90132000       1.09773000      16.10050000       0.00000000       0.00000000       0.00000000       0.00000000       0.00000000       0.00000000
Cu       4.43642000       1.09773000      16.10050000       0.00000000       0.00000000       0.00000000       0.00000000       0.00000000       0.00000000
Cu       8.23906000       3.29318000      16.10050000       0.00000000       0.00000000       0.00000000       0.00000000       0.00000000       0.00000000
Cu       0.63377400       3.29318000      16.10050000       0.00000000       0.00000000       0.00000000       0.00000000       0.00000000       0.00000000
Cu       3.16887000       3.29318000      16.10050000       0.00000000       0.00000000       0.00000000       0.00000000       0.00000000       0.00000000
Cu       5.70396000       3.29318000      16.10050000       0.00000000       0.00000000       0.00000000       0.00000000       0.00000000       0.00000000
Cu       9.50660000       5.48864000      16.10050000       0.00000000       0.00000000       0.00000000       0.00000000       0.00000000       0.00000000
Cu       1.90132000       5.48864000      16.10050000       0.00000000       0.00000000       0.00000000       0.00000000       0.00000000       0.00000000
Cu       4.43642000       5.48864000      16.10050000       0.00000000       0.00000000       0.00000000       0.00000000       0.00000000       0.00000000
Cu       6.97151000       5.48864000      16.10050000       0.00000000       0.00000000       0.00000000       0.00000000       0.00000000       0.00000000
Cu       0.63377400       7.68410000      16.10050000       0.00000000       0.00000000       0.00000000       0.00000000       0.00000000       0.00000000
Cu       3.16887000       7.68410000      16.10050000       0.00000000       0.00000000       0.00000000       0.00000000       0.00000000       0.00000000
Cu       5.70396000       7.68410000      16.10050000       0.00000000       0.00000000       0.00000000       0.00000000       0.00000000       0.00000000
Cu       8.23906000       7.68410000      16.10050000       0.00000000       0.00000000       0.00000000       0.00000000       0.00000000       0.00000000
Cu       5.63653000       1.80365000      18.06970000       0.00000000       0.00000000       0.00000000       0.27570700       0.05420580       0.64937100
Cu       8.17119000       1.73821000      18.22510000       0.00000000       0.00000000       0.00000000       0.10025100      -0.00718496      -0.52724700
Cu       0.58567300       1.81752000      18.19310000       0.00000000       0.00000000       0.00000000       0.29394300      -0.07723590      -0.15749200
Cu       3.11066000       1.87850000      18.16210000       0.00000000       0.00000000       0.00000000      -0.11602200      -0.38270200       0.32644500
Cu       7.03180000       3.94582000      18.20970000       0.00000000       0.00000000       0.00000000      -0.56745600      -0.00518359      -0.62175400
Cu       9.54422000       3.93713000      17.94890000       0.00000000       0.00000000       0.00000000      -0.55326300       0.52428400       1.57593000
Cu       1.78757000       4.01336000      18.21070000       0.00000000       0.00000000       0.00000000       0.36405500       0.07194130      -0.59081500
Cu       4.27889000       4.02748000      18.25350000       0.00000000       0.00000000       0.00000000       0.72574700       0.06681890      -0.58814800
Cu       8.40590000       6.23998000      18.20300000       0.00000000       0.00000000       0.00000000      -0.64376200      -0.34220300      -0.21475700
Cu       0.66899900       6.28037000      18.12040000       0.00000000       0.00000000       0.00000000       0.14065500      -0.43894000       0.16275300
Cu       3.17917000       6.25305000      18.21740000       0.00000000       0.00000000       0.00000000      -0.06777830      -0.28960000      -0.38629400
Cu       5.80817000       6.08248000      18.18810000       0.00000000       0.00000000       0.00000000      -0.75331800      -0.00374181      -0.67169900
Cu       9.56285000       8.45033000      18.12030000       0.00000000       0.00000000       0.00000000      -0.56445900      -0.16044500       0.51843600
Cu       1.85037000       8.39526000      18.19180000       0.00000000       0.00000000       0.00000000       0.51413600       0.34324100       0.28446200
Cu       4.36583000       8.42228000      18.12200000       0.00000000       0.00000000       0.00000000       0.21884600      -0.15881400       0.24728300
Cu       6.93535000       8.25078000      18.15740000       0.00000000       0.00000000       0.00000000       0.14418000       0.81989300       0.07617760
Cu       5.59456000       0.32572100      20.17600000       0.00000000       0.00000000       0.00000000       0.82728600      -0.18928900      -0.17160200
Cu       8.18937000       0.32288900      20.21250000       0.00000000       0.00000000       0.00000000       0.06865200      -0.41508500       0.32046700
Cu       0.60086000       0.44027700      20.23180000       0.00000000       0.00000000       0.00000000       0.34002400      -0.40437200       0.38494500
Cu       3.27383000       0.39794900      20.27640000       0.00000000       0.00000000       0.00000000      -1.01240000      -0.21523700      -0.32446900
Cu       6.98754000       2.48256000      20.21700000       0.00000000       0.00000000       0.00000000      -0.62569100       0.10671900      -0.09406950
Cu       9.45414000       2.58066000      20.15230000       0.00000000       0.00000000       0.00000000       0.15037100       0.16049200      -0.10363400
Cu       1.75231000       2.67493000      20.30680000       0.00000000       0.00000000       0.00000000       0.31555200      -1.00583000      -0.20209300
Cu       4.49561000       2.54109000      20.20340000       0.00000000       0.00000000       0.00000000      -0.47528400      -0.12375400       0.03710690
Cu       8.19311000       4.62977000      20.10430000       0.00000000       0.00000000       0.00000000       0.32495900       0.70424400       0.44524100
Cu       0.58207600       4.83462000      20.17980000       0.00000000       0.00000000       0.00000000      -0.68252800      -0.64583300      -0.01548920
Cu       2.95890000       4.62804000      20.20200000       0.00000000       0.00000000       0.00000000       1.32894000       0.65940900       0.36548600
Cu       5.62861000       4.66607000      20.24260000       0.00000000       0.00000000       0.00000000       0.16457900      -0.03097830      -0.02799690
Cu       9.59940000       6.89575000      20.22800000       0.00000000       0.00000000       0.00000000      -0.53961900       0.57257500      -0.08963590
Cu       1.93360000       6.82197000      20.28400000       0.00000000       0.00000000       0.00000000       0.06675710       0.91032500      -0.23567300
Cu       4.46318000       6.82695000      20.17950000       0.00000000       0.00000000       0.00000000      -0.34275700       0.37040900      -0.00925603
Cu       6.88395000       6.80347000      20.10580000       0.00000000       0.00000000       0.00000000       0.75987400       0.35879800       0.79279700
O        1.50112000       7.28277000      26.62830000       0.00000000       0.00000000       0.00000000       1.40798000       0.00240152      -1.47634000
H        2.16086000       7.98981000      26.80530000       0.00000000       0.00000000       0.00000000       0.03385000      -0.21460000      -0.32382700
H        0.86250900       7.33109000      27.32650000       0.00000000       0.00000000       0.00000000      -1.15208000      -0.08879210       1.11179000
O        4.05900000       6.89407000       0.81018400       0.00000000       0.00000000       0.00000000      -0.03350670      -4.02968000      -2.04090000
H        3.10091000       6.77489000       0.66095300       0.00000000       0.00000000       0.00000000      -0.45259500       0.02509970       0.09916160
H        4.14938000       7.69306000       1.20225000       0.00000000       0.00000000       0.00000000       0.49531100       4.30575000       1.81316000
O        2.34510000       2.06840000      25.34890000       0.00000000       0.00000000       0.00000000       0.72592500       0.81956100      -0.73923400
H        5.20191000       7.57225000      23.52200000       0.00000000       0.00000000       0.00000000       0.86276600       0.34151900      -0.02799710
H        3.07073000       2.05513000      24.65860000       0.00000000       0.00000000       0.00000000      -0.59961700      -0.10429000       0.31237700
O        1.51757000       6.44690000       0.69635200       0.00000000       0.00000000       0.00000000       0.36494200       0.01353550      -0.36550000
H        1.16463000       6.80185000      30.00590000       0.00000000       0.00000000       0.00000000      -0.55329600      -0.05217620      -0.30998200
H        1.30043000       7.08416000       1.40120000       0.00000000       0.00000000       0.00000000      -0.19939400       0.10833700       0.45028400
O        1.79142000       5.37883000      23.30560000       0.00000000       0.00000000       0.00000000      -0.05608860       0.91389400      -0.04210850
H        1.68351000       5.21481000      22.34390000       0.00000000       0.00000000       0.00000000       0.06543220      -0.18082900      -0.04518160
H        1.46470000       6.32857000      23.39200000       0.00000000       0.00000000       0.00000000       0.11418700      -0.85402500       0.21308000
O        3.19897000       4.82574000      26.59650000       0.00000000       0.00000000       0.00000000      -3.03108000      -1.56087000      -0.96429700
H        5.04657000       6.55288000       3.78092000       0.00000000       0.00000000       0.00000000      -0.30870300       0.48605400       0.06852630
H        2.78036000       5.66811000      26.73350000       0.00000000       0.00000000       0.00000000      -0.53427100       0.86531500       0.04309230
O        0.49988300       7.60178000      23.99720000       0.00000000       0.00000000       0.00000000      -0.87134000      -0.31667200      -1.33038000
H        0.95469500       8.16754000       6.66047000       0.00000000       0.00000000       0.00000000       0.90424300       0.53096700      -0.16607200
H        9.71174000       7.29155000      23.81620000       0.00000000       0.00000000       0.00000000       0.87301200       0.18151300       0.80200300
O        5.79644000       6.53596000       3.18264000       0.00000000       0.00000000       0.00000000       0.43579200      -1.32495000       0.65452800
H        5.89962000       0.80551500       1.45670000       0.00000000       0.00000000       0.00000000      -0.40764200       0.16366200      -0.28292100
H        5.89794000       7.37577000       2.74812000       0.00000000       0.00000000       0.00000000      -0.08756530       1.08067000      -0.52316800
O        8.26186000       6.07734000      23.41950000       0.00000000       0.00000000       0.00000000       3.66099000      -0.43426100      -1.70641000
H        8.60459000       6.45367000      22.53910000       0.00000000       0.00000000       0.00000000      -0.80248800      -0.88613500       1.02298000
H        0.12248800       6.19904000       5.69265000       0.00000000       0.00000000       0.00000000       0.29301500       1.11519000       0.67259600
O        0.14305900       5.30304000       5.37273000       0.00000000       0.00000000       0.00000000      -0.95458000      -0.99026800      -0.13609300
H        0.98891500       5.11474000       4.96623000       0.00000000       0.00000000       0.00000000       0.61265600      -0.26501200      -0.30084900
H        3.14076000       5.22297000       7.48489000       0.00000000       0.00000000       0.00000000      -0.11026500      -0.16954600       0.29873900
O        6.34209000       0.15761600       2.01605000       0.00000000       0.00000000       0.00000000       0.46159500       0.11106600       0.18750100
H        7.29755000       0.35424600       1.88715000       0.00000000       0.00000000       0.00000000       0.04524260      -0.10192900       0.20756200
H        3.21485000       1.24272000       0.64554200       0.00000000       0.00000000       0.00000000      -0.39328700      -0.23526200      -0.53138900
O        0.78881800       3.91407000       0.96835200       0.00000000       0.00000000       0.00000000       0.94796300      -0.45301700      -0.32730600
H        1.38432000       4.68800000       0.89000900       0.00000000       0.00000000       0.00000000      -0.86240500       0.21492100       0.17145400
H        1.40286000       3.23655000       0.64369700       0.00000000       0.00000000       0.00000000      -0.45318200      -0.20893500       0.11889700
O        0.08929250       7.77278000       6.64165000       0.00000000       0.00000000       0.00000000      -0.91300800      -0.60904700       0.84737200
H        4.07927000       4.90352000      26.80710000       0.00000000       0.00000000       0.00000000       3.28625000       0.54740300       0.61430400
H       10.08290000       7.61815000       7.61499000       0.00000000       0.00000000       0.00000000      -0.05961650       0.06558180      -0.78396800
O        2.62404000       1.46868000      29.04610000       0.00000000       0.00000000       0.00000000      -0.53332900      -2.13036000      -1.28893000
H        3.06534000       2.30506000      28.99560000       0.00000000       0.00000000       0.00000000       0.45672400       1.18948000       0.07845030
H        3.01122000       0.93472100      28.25530000       0.00000000       0.00000000       0.00000000      -0.43592300       0.74374500       1.29275000
O        5.73659000       8.42945000      23.62250000       0.00000000       0.00000000       0.00000000      -2.78701000       0.23676300      -0.44705000
H        0.71468800       7.58526000      24.92770000       0.00000000       0.00000000       0.00000000       0.02531370      -0.31199100       1.44749000
H        4.92573000       0.24220700      23.49510000       0.00000000       0.00000000       0.00000000       1.67410000       0.02773510      -0.18540100
O        7.97120000       3.66307000       0.64661100       0.00000000       0.00000000       0.00000000       0.33876600       0.10820300       0.10926100
H        7.98132000       4.58819000       0.32285000       0.00000000       0.00000000       0.00000000      -0.38288700      -0.24782200      -0.12603400
O        5.97185000       5.62317000      25.53270000       0.00000000       0.00000000       0.00000000       0.03849800       0.41704900       0.06233880
H        6.23778000       6.47617000      25.91980000       0.00000000       0.00000000       0.00000000      -0.23479100      -0.03773310      -0.22104000
H        5.42450000       5.84508000      24.74050000       0.00000000       0.00000000       0.00000000       0.44499800      -0.34089100       0.49494700
O        1.25966000       7.99508000       2.82099000       0.00000000       0.00000000       0.00000000      -1.13691000       0.70905700      -1.21840000
H        1.80908000       7.69944000       3.52882000       0.00000000       0.00000000       0.00000000       0.45153000      -0.39085100       1.51862000
H        0.35114800       8.22618000       3.10505000       0.00000000       0.00000000       0.00000000       0.86993500      -0.25188500      -0.03626940
O        5.92325000       8.64887000      26.12290000       0.00000000       0.00000000       0.00000000      -1.18301000      -0.85798000      -0.99146100
H        6.58892000       0.49672500      26.43120000       0.00000000       0.00000000       0.00000000       0.31336200       0.52743900      -0.12478200
H        5.72571000       8.69879000      25.09360000       0.00000000       0.00000000       0.00000000       1.26014000      -0.15041500       1.49542000
H        8.91667000       3.44488000       0.62149300       0.00000000       0.00000000       0.00000000       0.09167930      -0.07646980       0.25779700
O        3.82109000       5.72550000       7.02814000       0.00000000       0.00000000       0.00000000       0.13722700       0.09349790      -0.13977500
H        4.64737000       5.23075000       7.12802000       0.00000000       0.00000000       0.00000000       0.14584100      -0.08170600       0.00880716
H        9.86516000       8.25280000      28.91100000       0.00000000       0.00000000       0.00000000      -0.30122200      -0.45378000      -0.25568000
O        9.93861000       7.32868000      28.57570000       0.00000000       0.00000000       0.00000000       1.38748000       1.29536000       0.54220300
H        9.06697000       6.95460000      28.56890000       0.00000000       0.00000000       0.00000000      -1.30902000      -0.60951900       0.29318500
H        7.43080000       6.44669000      23.50750000       0.00000000       0.00000000       0.00000000      -2.85377000       1.33792000       0.36912900
O        9.46325000       2.65580000       3.63085000       0.00000000       0.00000000       0.00000000      -4.08073000      -2.38096000       0.87391200
H        0.16786200       2.88235000       3.82151000       0.00000000       0.00000000       0.00000000       4.57010000       1.63416000       0.50441600
H        9.21487000       2.19299000       4.49405000       0.00000000       0.00000000       0.00000000      -0.45767300       0.72992600      -1.46370000
O        3.45574000       0.90952300       1.51686000       0.00000000       0.00000000       0.00000000       0.46818500      -0.28047100       0.80225100
H        2.65673000       0.56400200       1.93458000       0.00000000       0.00000000       0.00000000      -0.10327000       0.15595300      -0.18240300
O        3.79011000       4.54986000       2.27114000       0.00000000       0.00000000       0.00000000      -0.26354300      -0.41454500      -0.19690800
H        4.69909000       4.26945000       2.49255000       0.00000000       0.00000000       0.00000000       0.29325200      -0.37064600       0.18771500
H        8.91843000       1.45487000      28.41770000       0.00000000       0.00000000       0.00000000       0.53198700      -0.01039890       0.77329900
O        9.57490000       1.40555000      29.17660000       0.00000000       0.00000000       0.00000000       0.75279300      -0.02368940      -1.49731000
H        4.53709000       6.64934000      29.23170000       0.00000000       0.00000000       0.00000000      -0.69894900       0.58639900       2.27201000
H        0.33710200       1.60268000      28.79110000       0.00000000       0.00000000       0.00000000      -1.11088000      -0.18916300       0.67057200
O        5.05079000       6.30495000      28.52680000       0.00000000       0.00000000       0.00000000       0.73587500      -0.64940200      -1.72073000
H        3.89505000       5.48326000       2.06450000       0.00000000       0.00000000       0.00000000       0.07977250       0.46016000      -0.22675700
H        4.91248000       6.97626000      27.85690000       0.00000000       0.00000000       0.00000000       0.29644400       0.11945500      -0.59917400
O        6.22230000       3.54979000       3.05730000       0.00000000       0.00000000       0.00000000       0.09676400      -0.37914900      -0.78857200
H        6.42626000       4.14959000       3.78444000       0.00000000       0.00000000       0.00000000       0.65626400      -0.05793050      -0.28068700
H        6.97254000       3.52284000       2.40570000       0.00000000       0.00000000       0.00000000      -0.56480700       0.34010600       0.86703200
O        5.92604000       2.05990000      29.83110000       0.00000000       0.00000000       0.00000000       2.38269000      -3.04988000      -0.00220280
H        6.82037000       2.40794000      30.00710000       0.00000000       0.00000000       0.00000000      -0.33815800       0.60552600       0.34164500
H        0.82121300       2.85865000      24.77110000       0.00000000       0.00000000       0.00000000      -0.10352700       0.95653400      -0.24253200
O        0.17193400       3.55315000      24.50460000       0.00000000       0.00000000       0.00000000      -0.53152000       0.48440400      -0.27841000
H        9.35154000       2.74681000       7.17246000       0.00000000       0.00000000       0.00000000       0.66816100       0.13291600      -0.10744600
O        0.13641600       3.07633000       7.23526000       0.00000000       0.00000000       0.00000000      -0.57994200       0.05670960      -0.58379300
H        5.34171000       2.75711000      29.72190000       0.00000000       0.00000000       0.00000000      -1.85451000       2.38896000      -0.24924900
H        0.20689100       3.75532000       6.51787000       0.00000000       0.00000000       0.00000000      -0.20874900      -0.06345950       0.47842700
O        7.40161000       3.22061000      23.25040000       0.00000000       0.00000000       0.00000000       1.05197000      -0.91460800       1.18225000