246
Lattice="10.140377178 0.0 0.0 0.0 8.78182424 0.0 0.0 0.0 30.131127158" Properties=species:S:1:pos:R:3:initial_charges:R:1:forces:R:3 stress="0.006399937352025553 -0.0004577148302375228 0.00038331604145699444 -0.0004577148302375228 0.003368561199766572 -0.0004197851792795303 0.00038331604145699444 -0.0004197851792795303 -0.003861334586764181" free_energy=-1801.19497421 energy=-1812.6991166682435 pbc="T T T"
Cu       7.01495000       1.04875000       9.67224000      -0.04490700       0.32581100       0.65645600       0.29277800
Cu       9.40692000       1.09900000      10.02230000      -0.08567100       0.42761600       0.22009800      -0.65422400
Cu       1.85312000       1.10239000      10.03770000      -0.11367200       0.25305500       0.17589200      -0.62713000
Cu       4.71146000       1.05583000      10.04350000      -0.11629500      -1.24253300       0.40571400      -0.53023700
Cu       8.21255000       3.33776000       9.88346000      -0.06980900       0.40943600       0.11560600      -0.05872000
Cu       0.63961000       3.32290000       9.90300000      -0.11375300      -0.13885200      -0.03996000       0.39326900
Cu       3.22852000       3.28437000       9.92187000      -0.08186400      -0.10417300      -0.06830900       0.25653800
Cu       5.83975000       3.29489000      10.03600000      -0.12918300      -0.64063400       0.12809800      -0.41462300
Cu       9.41439000       5.56780000       9.95239000      -0.08146200       0.18596800      -0.29165000      -0.55409100
Cu       1.77969000       5.56352000       9.87424000      -0.09141600       0.57311100      -0.03696500       0.27096100
Cu       4.46069000       5.51264000      10.00790000      -0.09987900      -0.22848900       0.19120000      -0.26873200
Cu       6.97663000       5.57604000       9.75922000      -0.08240900      -0.05163900      -0.45914200       0.41196500
Cu       0.58819000       7.73557000       9.82403000      -0.06009300       0.17506300       0.02630300       0.37043100
Cu       3.27776000       7.88339000       9.81483000      -0.09387100      -0.32166700      -0.80600500       0.19292400
Cu       5.85084000       7.69137000       9.73198000      -0.10520600      -0.86803000      -0.19507400       0.20229000
Cu       8.23174000       7.73553000       9.81049000      -0.08758800       0.44539400      -0.32026500       0.25971800
Cu       5.73308000       1.79764000      12.00280000      -0.01682700      -0.06973100       0.44019200       0.31724500
Cu       8.21562000       2.00750000      11.94810000       0.00714800      -0.11748600      -0.74726600       0.08787400
Cu       0.56398000       1.79305000      11.92630000      -0.00283400       0.33551700       0.43415100       0.58727700
Cu       3.12416000       1.80194000      12.00210000       0.00686200       0.33279300       0.08958500      -0.20296900
Cu       6.99017000       4.08641000      11.99730000      -0.00457500      -0.30183100       0.05817600      -0.11738900
Cu       9.52784000       4.09004000      11.96670000      -0.00097300      -0.09879100      -0.46519800      -0.09095900
Cu       1.89768000       4.05500000      11.95320000       0.01009800      -0.08094500      -0.16180100      -0.12627100
Cu       4.38969000       4.02784000      11.98170000      -0.00282400       0.35544900      -0.04134000       0.01143300
Cu       8.19298000       6.19533000      12.00070000      -0.00212100      -0.01640400       0.60923200      -0.29034200
Cu       0.48310000       6.21882000      11.91020000       0.00581200       0.89644600       0.53710200       0.36065700
Cu       3.10533000       6.22948000      12.03010000      -0.00528500       0.19271200      -0.29747700      -0.64588600
Cu       5.76684000       6.27165000      11.93090000      -0.00212400      -0.36082200      -0.13315100       0.06897700
Cu       9.42566000       8.48356000      12.01380000       0.00235600       0.28229900      -0.48271700      -0.28779100
Cu       1.95115000       8.34804000      11.94580000      -0.00281200      -0.67574500       0.18134800      -0.04458200
Cu       4.40272000       8.32284000      11.94780000       0.01035900       0.44119000       0.38160700       0.09686100
Cu       6.96872000       8.50358000      11.79630000       0.02092400      -0.03315200      -0.20883500       0.59524800
Cu       5.70396000       0.36591000      14.03060000      -0.01381000       0.02432800      -0.15211700      -0.07987300
Cu       8.23906000       0.36591000      14.03060000      -0.00991100      -0.20035100       0.11209700      -0.04103200
Cu       0.63377000       0.36591000      14.03060000       0.01034000       0.07811500      -0.02570300      -0.04006300
Cu       3.16887000       0.36591000      14.03060000      -0.03400300       0.01623800      -0.08215600       0.05186700
Cu       6.97151000       2.56137000      14.03060000      -0.01744600      -0.03448700       0.02384000       0.16971100
Cu       9.50660000       2.56137000      14.03060000      -0.01318400       0.04218400       0.00302500       0.00011900
Cu       1.90132000       2.56137000      14.03060000      -0.01741100      -0.11675000       0.01191400      -0.02510800
Cu       4.43642000       2.56137000      14.03060000      -0.01672000      -0.00791300      -0.03048000       0.07388100
Cu       8.23906000       4.75682000      14.03060000      -0.00410900       0.05129200      -0.06246800       0.21501100
Cu       0.63377000       4.75682000      14.03060000      -0.01511300       0.07885100       0.03661700       0.00887300
Cu       3.16887000       4.75682000      14.03060000      -0.04031100      -0.04322300      -0.09377300       0.18539100
Cu       5.70396000       4.75682000      14.03060000       0.01552500      -0.06322400       0.05211000      -0.00942500
Cu       9.50660000       6.95228000      14.03060000      -0.03680100      -0.00287300       0.02590100       0.04454200
Cu       1.90132000       6.95228000      14.03060000      -0.01073700      -0.20625500      -0.02098200       0.08499700
Cu       4.43642000       6.95228000      14.03060000      -0.01211300       0.06613900      -0.04905000       0.06551600
Cu       6.97151000       6.95228000      14.03060000       0.01592800      -0.04234200       0.17020600      -0.09785700
Cu       6.97151000       1.09773000      16.10050000      -0.01130800       0.03058900       0.00530300       0.11524200
Cu       9.50660000       1.09773000      16.10050000      -0.00965400       0.05117500      -0.02166800       0.00851900
Cu       1.90132000       1.09773000      16.10050000      -0.01866700       0.05138900       0.06556900      -0.05179400
Cu       4.43642000       1.09773000      16.10050000      -0.01816400       0.16268400       0.01379700       0.02877600
Cu       8.23906000       3.29318000      16.10050000       0.01217600      -0.08519900      -0.10606000      -0.18546100
Cu       0.63377000       3.29318000      16.10050000      -0.04034700       0.16997400       0.00135300      -0.19317200
Cu       3.16887000       3.29318000      16.10050000      -0.01820500      -0.10413200       0.05113800       0.22258200
Cu       5.70396000       3.29318000      16.10050000      -0.01124300      -0.18475000       0.01353300      -0.00721700
Cu       9.50660000       5.48864000      16.10050000      -0.03706000       0.06262500      -0.03798300      -0.12335600
Cu       1.90132000       5.48864000      16.10050000       0.01697800      -0.01359200       0.05538900       0.34984000
Cu       4.43642000       5.48864000      16.10050000      -0.01473900      -0.01445000       0.13452000       0.13059100
Cu       6.97151000       5.48864000      16.10050000      -0.01180200      -0.06740200       0.17287300      -0.06510900
Cu       0.63377000       7.68410000      16.10050000      -0.01285600      -0.14828800      -0.04855000       0.08722200
Cu       3.16887000       7.68410000      16.10050000       0.00978100       0.15924600      -0.00036200       0.09342300
Cu       5.70396000       7.68410000      16.10050000      -0.02425200       0.00407100      -0.04730400       0.10642000
Cu       8.23906000       7.68410000      16.10050000      -0.03921300       0.07487300       0.16498500      -0.18265000
Cu       5.85379000       1.93470000      18.23000000       0.00157500      -0.54800100      -0.50172800       0.00165100
Cu       8.31899000       1.81407000      18.19350000       0.00913600      -0.43039600       0.34512300      -0.10033400
Cu       0.65934000       1.85486000      18.16570000      -0.00454800       0.50422700      -0.41665900      -0.21878800
Cu       3.28236000       1.78541000      18.15560000      -0.00318800      -0.24401300       0.56986500       0.07137100
Cu       6.94330000       4.06056000      18.08830000       0.00130100       0.33012400       0.30897800       0.57704300
Cu       9.53274000       3.93182000      18.09470000       0.00544600      -0.68121700       0.78348500       0.47268600
Cu       1.75566000       4.11011000      18.27300000       0.00380800       0.98701000      -0.09015400      -0.36560100
Cu       4.34478000       4.15356000      18.18330000       0.00735700       0.06836600      -0.66116800       0.32275300
Cu       8.28711000       6.29270000      18.10650000      -0.00389000      -0.62601600      -0.63978200       0.41910700
Cu       0.47559000       6.21499000      18.24880000       0.00103800       0.98163800       0.23904600      -0.12581400
Cu       3.13877000       6.30465000      18.26340000       0.01282100      -0.07776500      -0.24647300      -0.01452800
Cu       5.69107000       6.20933000      18.26270000       0.00487100       0.18072500       0.28941700      -0.49747200
Cu       9.44883000       8.47812000      18.25490000       0.00563300       0.73208300      -0.22526400      -0.75355200
Cu       1.88922000       8.36740000      18.09810000      -0.00029200      -0.14419300       0.30869800       0.43173600
Cu       4.54714000       8.45916000      18.21860000      -0.00204500      -0.38277200      -0.17272200      -0.36412700
Cu       7.02274000       8.35406000      18.16980000       0.00648100      -0.34422900       0.46599400       0.02257300
Cu       5.76967000       0.31472000      20.19670000      -0.08354500       0.01556500       0.51772800       0.11778900
Cu       8.26793000       0.45900000      20.19950000      -0.03584000      -0.33194900       0.09187700       0.31479000
Cu       0.65380000       0.42134000      20.19560000      -0.03284800       0.02872200      -0.00477300       0.03744600
Cu       3.08573000       0.38176000      20.12360000      -0.06053300       0.72864800      -0.09166200       0.24787400
Cu       7.15295000       2.78887000      20.22990000      -0.04348000      -0.22245100      -0.57060400      -0.08182800
Cu       9.71471000       2.64441000      20.19190000      -0.03783600      -0.70147500       0.09491300       0.13445900
Cu       2.00452000       2.58072000      20.16790000      -0.08764800       0.26445500       0.14020100       0.13252500
Cu       4.63194000       2.62565000      20.31620000      -0.06961000      -0.46587600      -0.12848400      -0.47849700
Cu       8.30631000       4.87373000      20.21310000      -0.08309700       0.22504700      -0.11873600      -0.20565700
Cu       0.62901000       4.84824000      20.34140000      -0.09757100       0.07920200       0.07740500      -0.03417500
Cu       3.12649000       4.76970000      20.37750000      -0.07898500       0.28347100       0.21199700      -0.41152600
Cu       5.69904000       4.86688000      20.28350000      -0.07126900       0.17199200      -0.46936300      -0.06943900
Cu       9.50073000       7.12382000      20.27590000      -0.09707100       0.15835500      -0.61711000       0.14522700
Cu       1.87703000       7.02159000      20.38800000      -0.09824200       0.10364200      -0.28491200      -0.52623300
Cu       4.51672000       6.99769000      20.30000000      -0.08345100      -0.54638900      -0.02521300      -0.17568300
Cu       7.06912000       6.92518000      20.29220000      -0.07779900      -0.29923800       0.46274400      -0.19974800
O        0.23435000       2.70370000      26.62910000      -1.36966200       0.09666900      -0.87823400       0.22228300
O        4.67729000       3.41807000      26.54350000      -1.36531000       0.46844500       0.20480700      -0.44133000
O        8.62924000       7.85827000      23.57010000      -1.29144600       1.64803400       0.49653500       0.26501000
O        9.40165000       4.98934000      27.87530000      -1.34031500      -0.24170000      -0.56025900       0.49664200
O       10.04450000       3.92392000      24.00640000      -1.30903300       0.85733200       0.53509800       0.54938100
O        2.81352000       5.37414000      26.96680000      -1.36259500       1.35217900      -0.10367000       0.27806500
O        9.63874000       7.57098000      26.95650000      -1.32183200      -1.00407200       1.81181100       1.01647500
O        1.28134000       0.51486000      27.89640000      -1.39455200      -1.47258600      -0.78347500       0.10003300
O        5.55367000       0.95106000       0.11160000      -1.28390200      -0.14657200      -1.28456900       0.69210400
O        2.84044000       2.40814000      24.47540000      -1.28817800      -0.48001100      -1.82556000      -1.39478800
O        3.91072000       1.37499000      27.86140000      -1.36022800      -0.67329000       0.51033800       0.01909300
O        3.32314000       0.29301000       1.68765000      -1.37377000      -0.48837500      -2.28136600      -1.96588000
O        3.91002000       3.68823000       6.77438000      -1.33336100      -0.76139000       1.69043700      -1.80232100
O       10.00385000       2.48703000       3.29336000      -1.26260600      -0.70229400       0.67105300       1.64777800
O        0.26824000       3.07597000       0.50287000      -1.28079300       0.57594700       0.13045700      -0.46758400
O        4.22436000       2.37111000       2.84709000      -1.37179400      -0.27488800       0.54559700       0.39120000
O        7.06616000       3.56221000       6.25557000      -1.34541100       0.23929300       0.24061800      -0.76599400
O        7.97661000       5.16747000       0.99377000      -1.34530700      -1.14434600      -1.47958600      -1.36487100
O        3.58969000       0.70065000       6.68572000      -1.33439300       1.22647000      -0.50064200       0.99151100
O        8.74387000       8.60107000       3.14763000      -1.34083400       2.06414400      -0.04132200       0.58200800
O        0.81976000       5.62440000       2.37130000      -1.31734400       0.37496600       0.00689600      -3.00806900
O        1.27900000       3.69752000       6.89814000      -1.32869200       0.16536100      -0.00980100       0.41127100
O        3.51203000       5.20382000      23.52350000      -1.29942600       0.43442100       0.23148800       0.26601400
O        1.35927000       7.60966000       0.36656000      -1.32819300      -0.49923000      -0.65425500       0.05701900
O        7.16564000       7.43381000      29.07420000      -1.28166000      -1.31622500       0.76544900      -0.57718100
O        9.39723000       4.68907000       5.14870000      -1.35812800       1.45548500      -0.71673100       0.67223000
O        7.71767000       0.63718000      26.78750000      -1.28538800       1.79520900       1.56718300      -0.50251500
O        8.04216000       7.89278000       6.54497000      -1.36161200      -0.94819700      -0.26778600      -1.19385000
O        6.48573000       8.19973000       4.50977000      -1.35776500      -0.75941200      -0.43195700       0.34905600
O        2.54915000       3.51788000      28.89430000      -1.32031100       0.30081100      -1.42014300      -0.22354500
O        5.42673000       5.81122000       6.51625000      -1.38645800      -1.44908800       0.96537300      -0.26232800
O        0.08718000       7.34730000       5.30094000      -1.32051700       1.36573200      -0.61540500      -0.45547100
O        4.18924000       6.66920000       3.64114000      -1.36751600       0.10617400      -0.01071000      -0.76773200
O        3.30856000       4.62025000       1.84405000      -1.38815900      -0.28274500      -0.65575900       2.02534100
O        5.31081000       2.97807000      23.93310000      -1.30653500      -0.86012800      -0.45401000      -0.06510400
O        1.15127000       6.60792000      25.21250000      -1.31046600      -0.95621700       0.05767700      -0.07378800
O        9.22844000       0.79201000       0.47199000      -1.36302900      -0.40585300      -0.40845600      -0.84391700
O        4.98769000       7.76187000      23.30720000      -1.36121000      -0.26662700       0.67578000      -0.06529200
O        6.18869000       3.28733000       1.29799000      -1.37720100      -1.16123800       0.34021700       1.28845300
O        2.63849000       6.70349000       6.25819000      -1.34054300       0.57614900       1.30344600      -3.26262500
O        6.62986000       6.12475000      24.82780000      -1.31659600      -0.43991200      -0.19053100       0.55240500
O       10.01670000       1.33840000      22.85840000      -1.33249100      -0.70404500       0.16143800      -0.39766200
O        1.25551000       1.10730000       5.81526000      -1.30943300      -1.01861700       1.20766700      -0.52361500
O        5.10419000       0.67505000      25.56500000      -1.33043800       0.88331700      -0.77602600      -0.83978000
O        4.37608000       5.30907000      29.70500000      -1.31274200       1.95090700       0.32694100       0.78453500
O        7.39216000       1.38986000      23.16130000      -1.30228600      -2.02974900       2.38586100       0.40824700
O        6.84575000       2.89812000      28.46990000      -1.32427700      -1.12456800       2.74779400      -0.11924300
O        5.44654000       1.84666000       5.25613000      -1.34450900      -0.20335900      -0.66365700      -0.35415300
O        2.26640000       8.68036000      23.14640000      -1.32404300       0.20758000      -0.36106300       0.25491700
O        5.12245000       7.13084000      27.15680000      -1.34099900       0.50210400       0.35452600       0.31489700
H        0.19229000       2.86382000      25.69340000       0.67263400      -0.03528800       0.16386200      -1.11319000
H        0.00612000       3.55845000      27.00120000       0.68988400      -0.37115400       0.72008100       0.62200400
H        4.04103000       4.15784000      26.57980000       0.68141100      -0.11483000       0.35941600      -0.04045000
H        4.98888000       3.36586000      25.60180000       0.68894700       0.04219300       0.05514300       0.45813900
H        0.17109000       3.48029000       1.36999000       0.68586400      -0.23878200       0.14661900       0.34129300
H        9.46827000       8.42043000      23.58650000       0.63953300      -1.45423300      -0.58337800       0.29153800
H        8.59277000       4.69016000      28.36510000       0.64985200       0.78611000       1.00964000      -0.84385600
H        9.45243000       5.95623000      27.64920000       0.67554800      -0.63590800      -0.63151100       0.37044800
H        0.51442000       4.70023000      24.02600000       0.64933200      -0.68716800      -0.50944900      -0.09492600
H        9.74397000       3.83187000      23.09980000       0.62858500      -0.19961000       0.44984500      -0.42251700
H        0.87929000       1.23130000      27.40460000       0.68730400      -0.35715400       0.85107200      -0.24477700
H        2.41592000       4.76674000      27.57910000       0.67465600      -0.43491400      -0.64437100       0.93628300
H        4.15156000       3.18363000       7.52612000       0.62950400       0.74557500      -0.46647900       1.54973100
H        0.24224000       8.12597000      27.35440000       0.67268500      -0.23424900      -0.70326000      -0.25951200
H        4.57591000       1.17662000      28.53740000       0.67281500       0.27489300       0.19537000       0.11267300
H        2.17344000       0.79611000      28.00100000       0.69866500       1.79301300      -0.00814700       0.06433900
H        6.38146000       0.43184000       0.24637000       0.62294300      -0.81122300       0.39084700      -0.39043400
H        2.72609000       1.53516000      23.94960000       0.65812900      -0.10051800       1.19756900       0.55694700
H        2.82597000       2.08592000      25.37720000       0.64827900       0.12136100       0.02377300       0.47055000
H        7.84327000       8.61104000       3.44001000       0.68198200      -1.40014600      -0.22129100       0.45213300
H        4.22792000       2.13133000      27.25870000       0.68579900       0.31592200      -0.69087800       0.48647600
H        3.12995000       4.34057000      23.69170000       0.63901900      -0.44199000      -0.19976500      -0.06969000
H        3.52541000       1.01157000       2.24764000       0.72716800       0.53405100       2.22050000       1.47421600
H        3.56491000       8.28940000       2.17827000       0.64676000       0.00719100      -0.46402900       0.43154000
H        2.11851000       5.64241000      26.38260000       0.69000000      -0.71851800       0.88220500      -1.20102300
H        4.35246000       4.61232000       6.76660000       0.66332700      -0.17802700      -1.16969200       0.32191200
H        9.33685000       1.81148000       3.50565000       0.61313400       0.16140700      -0.36517600      -0.66180200
H        9.73554000       3.18335000       3.96242000       0.62454000       0.60968100      -0.20594600      -0.96259900
H        8.86041000       8.24493000      26.96270000       0.64172300       1.03379200      -1.40337700      -0.49102200
H        9.89100000       3.59696000      30.01689000       0.63031400      -0.10363700       0.52791900       0.01127900
H        4.67539000       2.30321000       3.73057000       0.68292800      -0.44618300       0.38605000      -0.27716500
H        6.46224000       2.84246000       5.88180000       0.69498600       0.05719200       0.36174100       0.39289700
H        6.82408000       3.72799000       7.16875000       0.59858200       0.11002900      -0.43402100       0.57928800
H        8.25343000       5.75482000       1.64705000       0.64063800       0.93448800       1.47980200       1.77396000
H        7.29442000       4.58806000       1.42765000       0.68483400       0.40967200       0.26368100      -0.55946600
H        3.44214000       0.87127000       7.64359000       0.59151200       0.15085400      -0.18660900      -0.27713200
H        2.77479000       0.95947000       6.24197000       0.69277000      -1.09797600       0.15901300      -0.50412700
H        3.78109000       3.25831000       2.68038000       0.68709500       0.75914500      -0.92909600       0.24798200
H        9.22497000       8.27762000       3.95910000       0.63992400      -0.24873600       0.12661700      -1.06732400
H        0.84994000       6.39344000       1.72034000       0.65610400       0.19057300      -0.75256400       0.48907500
H        0.66047000       6.02634000       3.18533000       0.65610100      -0.51654500       0.96926700       2.32548900
H        4.85612000       0.51718000       0.68771000       0.64749500       0.66917300       0.50716200      -0.62992500
H        2.30871000       3.72338000       6.85441000       0.67430300      -0.88779100       0.04107800       0.24329800
H        1.00738000       3.73897000       7.87106000       0.54837200       0.54745900       0.08040300      -1.05001200
H        3.03818000       5.58841000      22.77520000       0.60545400      -0.14459500      -0.14920500      -0.18959900
H        2.00698000       8.29999000       0.57164000       0.66619000      -0.25479300       0.16944200       0.12325600
H        7.93804000       7.65920000      28.58530000       0.63694500       0.90411200       0.45603000      -0.62970100
H       10.07930000       4.32781000       5.80178000       0.64891300      -0.56078400       0.48086900      -0.67888100
H        7.48884000       6.89918000      29.76640000       0.64347200       0.41330700      -1.39272100       1.47375300
H        0.55091000       8.04631000       0.04340000       0.65820900       0.47729200       0.36250000       0.12985100
H        8.58608000       4.26157000       5.45301000       0.70321200      -0.73697500       0.01513600       0.39153300
H        8.39113000       1.25744000      26.36510000       0.61822800      -1.00590300      -0.87231700       0.78634900
H        6.93234000       0.79837000      26.24630000       0.67859300      -0.91287600      -0.28166700      -0.37949200
H        8.88945000       7.92694000       6.04674000       0.68578600       0.09970400       0.18953400       1.23288000
H        5.78507000       7.56127000       4.25100000       0.67116100       0.33294600       0.29339100       0.00554900
H        2.96741000       2.65252000      28.53430000       0.64896600      -0.32968500       1.13938000       0.64921300
H        8.07596000       8.12619000       7.47252000       0.61761000       0.54660200       0.23946400       0.46253700
H        2.01821000       3.24190000      29.66070000       0.65295800      -0.22292800       0.08842300      -0.16207100
H        5.51830000       6.31917000       7.34753000       0.66176500       0.59652600      -0.51585200      -0.17130700
H        6.14181000       5.20859000       6.31228000       0.68744300       0.96803300      -0.21366200       0.29091200
H        1.07563000       7.22783000       5.46309000       0.64608600      -1.06991900       0.47621600       0.20515700
H        3.93049000       5.88126000       3.08350000       0.65434300       0.21965600       0.55270200       0.96832800
H        9.88383000       6.44441000       5.43423000       0.66513700      -0.20888800      -0.21116900      -0.21604200
H        3.96866000       6.55303000       4.57680000       0.69421500      -0.35742000      -0.56178200      -0.18376000
H        5.07656000       4.65370000      29.97869000       0.63473600      -0.95587600       0.70555600      -0.37683400
H        2.41507000       4.91622000       2.03389000       0.69052000      -1.01310900       0.20528200       0.28877600
H        3.57185000       5.09758000       1.07472000       0.69177500       0.99203700       0.72829400      -1.68327600
H        5.16024000       3.69180000      23.28900000       0.62296400       0.02745300       0.02865400       0.22855600
H        0.30073000       6.88255000      25.64370000       0.66514200       0.54837600      -0.32588700      -0.08107600
H        9.32062000       0.50889000       1.37610000       0.65356800      -0.14741500      -0.19855900       0.78874500
H        1.36208000       7.41572000      24.72850000       0.62814900       0.59785400      -0.10427200      -0.35131100
H        4.37159000       2.57522000      24.09600000       0.67319400       1.23999500       0.59007800      -0.38030800
H        9.57977000       1.70689000       0.46050000       0.67599300       0.20373400      -0.28703400       0.10410300
H        5.12867000       7.92825000      22.34680000       0.59526400       0.24823500      -0.47091300       0.33994200
H        5.34172000       6.89619000      23.58670000       0.70221600       0.14038400       0.02027900      -0.19954700
H        6.79499000       7.94514000       5.43033000       0.68390400       0.18521300       0.21681800      -0.58227200
H        2.32948000       6.18124000       6.94809000       0.65084400      -0.60508600      -1.08359400       2.45383300
H        7.30641000       6.72808000      24.52930000       0.64600400       0.77245900       0.31281300      -0.37291800
H        3.07395000       7.52349000       6.52991000       0.67350600      -0.09407700       0.07027700       0.73703500
H        6.50005000       2.84791000       0.53474000       0.70868500       0.69435300      -0.71975900      -1.65476900
H        6.40972000       6.45504000      25.71750000       0.65974300      -0.32685600      -0.20267900      -0.18350300
H        9.03695000       1.54409000      22.64600000       0.66642000       1.42959000      -0.11089300       0.87901500
H        0.32670000       2.13939000      23.18620000       0.63798700      -0.43087200      -0.29943400      -0.09000600
H        8.55941000       7.76631000      22.61160000       0.59405100      -0.32406500      -0.40537300      -0.48485800
H        0.87826000       1.42651000       4.96190000       0.65289500       0.46608400      -0.35533400       0.39799200
H        5.28799000       0.23221000      24.68980000       0.64902400      -0.48236000       0.27359200       0.80744800
H        1.09220000       1.90554000       6.38401000       0.64403800       0.13134500      -0.35180300      -0.20136800
H        4.99200000       8.68958000      26.16850000       0.66896600      -0.27518100       0.12352600      -0.10954500
H        3.62984000       4.79064000      29.41420000       0.67481000      -0.52307300      -0.99302100      -0.65313700
H        5.46672000       2.66996000       1.59842000       0.65880600       0.64597600       0.87704400       0.25749700
H        7.07550000       0.51798000      23.37980000       0.62468000       0.07840100      -0.64044700       0.04653600
H        6.58196000       2.03276000      23.38450000       0.64141100       1.66377600      -1.31021600      -0.49267300
H        7.21511000       2.09730000      28.15100000       0.67726300       0.32928600      -1.21745000      -0.93502100
H        6.32017000       3.36546000      27.74300000       0.63350000       0.85583300      -1.31024100       1.06382300
H        4.73260000       1.53362000       5.90586000       0.68168200       0.62595300       0.08255100      -0.53405900
H        5.85708000       1.01669000       4.89241000       0.66054800      -0.24493400       0.18769500       0.46849700