LAMMPS (28 Mar 2023 - Development)
KOKKOS mode is enabled (src/KOKKOS/kokkos.cpp:107)
  will use up to 1 GPU(s) per node
  using 1 OpenMP thread(s) per MPI task
package kokkos
# LAMMPS input script

# == SETUP ==
units metal #ps A K  pressure in bars
atom_style atomic

atom_modify map yes
newton on

timer timeout 23:55:00
New timer settings: style=normal  mode=nosync  timeout=23:55:00

# == VARIABLES ==
variable    temp_water equal 330  # Temperature of water system
variable    temp_Cu_mobile equal 310 # Temperatureof the Cu atom (not fixed). 310 K ensures a temperature of 330 K in the outermost Cu atoms.
variable    seed1 equal 256982574
variable    seed2 equal 1008705
variable    stride equal 200
variable    nsteps equal 1000000 # 500 ps
variable    tstep equal 0.0005 # 0.5fs

# == DATA ==
boundary p p p #full
read_data Cu_H2O.data
Reading data file ...
  orthogonal box = (0 0 0) to (10.140377 8.7818242 30.131127)
  1 by 1 by 1 MPI processor grid
  reading atoms ...
  246 atoms
  reading velocities ...
  246 velocities
  read_data CPU = 0.517 seconds
mass		1 63.55   # Cu
mass		2 2.0016  # H
mass 		3 15.9994 # O

# == Define GROUPS ==
group H2O type 2 3
150 atoms in group H2O

# == DEFINE FIX Cu layers ==
variable z_fix_bottom equal 13.5 # A
variable z_fix_up equal 16.5# # A
region fixedlayer block  INF INF INF INF ${z_fix_bottom} ${z_fix_up} #
region fixedlayer block  INF INF INF INF 13.5 ${z_fix_up} 
region fixedlayer block  INF INF INF INF 13.5 16.5 

group Cuall type 1
96 atoms in group Cuall
group fixedCu region fixedlayer
32 atoms in group fixedCu
group mobileCu subtract Cuall fixedCu
64 atoms in group mobileCu

# == Fix layers in the middle of the slab ==
fix fissoCubott fixedCu setforce 0 0 0
velocity fixedCu set 0 0 0

# == Define surface layers ==

variable z_surface_inf_low equal 9.0 # A
variable z_surface_inf_high equal 10.6 # A
region surface_inf block  INF INF INF INF ${z_surface_inf_low} ${z_surface_inf_high}
region surface_inf block  INF INF INF INF 9 ${z_surface_inf_high}
region surface_inf block  INF INF INF INF 9 10.6
group surf_inf_Cu region surface_inf
16 atoms in group surf_inf_Cu

variable z_surface_sup_low equal 19.8 # A
variable z_surface_sup_high equal 21.0 # A
region surface_sup block  INF INF INF INF ${z_surface_sup_low} ${z_surface_sup_high}
region surface_sup block  INF INF INF INF 19.8 ${z_surface_sup_high}
region surface_sup block  INF INF INF INF 19.8 21
group surf_sup_Cu region surface_sup
16 atoms in group surf_sup_Cu

# == Define Pair Style ==

pair_style mace no_domain_decomposition
pair_coeff * * MACE_Cu_H2O_PZC_1_stagetwo_compiled.model-lammps.pt Cu H O

# == Define NVT thermostat ==

velocity mobileCu create ${temp_Cu_mobile} ${seed1} mom yes rot yes
velocity mobileCu create 310 ${seed1} mom yes rot yes
velocity mobileCu create 310 256982574 mom yes rot yes
fix NVT_Cu mobileCu nvt temp ${temp_Cu_mobile} ${temp_Cu_mobile} $(100.0*dt)
fix NVT_Cu mobileCu nvt temp 310 ${temp_Cu_mobile} $(100.0*dt)
fix NVT_Cu mobileCu nvt temp 310 310 $(100.0*dt)
fix NVT_Cu mobileCu nvt temp 310 310 0.10000000000000000555

velocity  H2O  create ${temp_water} ${seed2}
velocity  H2O  create 330 ${seed2}
velocity  H2O  create 330 1008705
fix NVT_H2O H2O nvt temp ${temp_water} ${temp_water} $(100.0*dt)
fix NVT_H2O H2O nvt temp 330 ${temp_water} $(100.0*dt)
fix NVT_H2O H2O nvt temp 330 330 $(100.0*dt)
fix NVT_H2O H2O nvt temp 330 330 0.10000000000000000555

# == Compute and Visualization ==

thermo          ${stride}
thermo          200
thermo_style    custom step pe ke etotal temp press vol
thermo_modify	flush yes
fix 		thermo_print all print ${stride} "$(step) $(pe) $(ke) $(etotal) $(temp) $(press) $(vol)" append thermo.out screen no title "#step pe ke etotal temp press vol"
fix 		thermo_print all print 200 "$(step) $(pe) $(ke) $(etotal) $(temp) $(press) $(vol)" append thermo.out screen no title "#step pe ke etotal temp press vol"

compute Tmobile mobileCu temp
compute Tsurface_inf surf_inf_Cu temp
compute Tsurface_sup surf_sup_Cu temp
compute Twater H2O temp
compute Tall all temp
compute Press all pressure Tall

fix myat1 mobileCu ave/time 1 1 100 c_Tmobile file temperature_mobile.dat
fix myat2 surf_inf_Cu ave/time 1 1 100 c_Tsurface_inf file temperature_surf_inf.dat
fix myat3 surf_sup_Cu ave/time 1 1 100 c_Tsurface_sup file temperature_surf_sup.dat
fix myat4 H2O ave/time 1 1 100 c_Twater file temperature_water.dat
fix myat5 all ave/time 1 1 100 c_Press[3]  file pressure_all.dat

dump		viewNVT all custom ${stride} Cu_H2O_NVT.dump id type element x y z
dump		viewNVT all custom 200 Cu_H2O_NVT.dump id type element x y z
dump_modify	viewNVT sort id append yes element Cu H O

# == RUN  NVT ==

timestep ${tstep}
timestep 0.0005
run		${nsteps}
run		1000000
Generated 0 of 3 mixed pair_coeff terms from geometric mixing rule
Neighbor list info ...
  update: every = 1 steps, delay = 0 steps, check = yes
  max neighbors/atom: 2000, page size: 100000
  master list distance cutoff = 14
  ghost atom cutoff = 14
  binsize = 14, bins = 1 1 3
  1 neighbor lists, perpetual/occasional/extra = 1 0 0
  (1) pair mace/kk, perpetual
      attributes: full, newton on, kokkos_device
      pair build: full/bin/kk/device
      stencil: full/bin/3d
      bin: kk/device
Per MPI rank memory allocation (min/avg/max) = 4.821 | 4.821 | 4.821 Mbytes
   Step         PotEng         KinEng         TotEng          Temp          Press          Volume    
         0  -1816.2265      8.880172      -1807.3464      280.40816     -8210.2964      2683.2073    
       200  -1815.7499      8.5339245     -1807.2159      269.47475     -3918.7724      2683.2073    
       400  -1816.7039      9.5613393     -1807.1425      301.9173      -2555.4761      2683.2073    
       600  -1816.2305      8.4875658     -1807.743       268.01089     -8613.6582      2683.2073    
       800  -1816.3741      8.3386124     -1808.0355      263.3074      -6828.5639      2683.2073    
      1000  -1816.0033      8.7843554     -1807.219       277.38257     -4705.3277      2683.2073    
      1200  -1815.7567      9.6372957     -1806.1194      304.31577     -8388.4958      2683.2073    
      1400  -1814.759       8.9661937     -1805.7928      283.12446     -8603.3933      2683.2073    
      1600  -1815.37        8.9471165     -1806.4229      282.52206     -3083.4212      2683.2073    
      1800  -1816.2894      8.6899997     -1807.5994      274.40312     -444.41119      2683.2073    
      2000  -1816.7278      8.1643058     -1808.5635      257.80334     -8868.2107      2683.2073    
      2200  -1816.1227      8.0646175     -1808.0581      254.65549     -7642.2353      2683.2073    
      2400  -1815.8793      8.4291515     -1807.4502      266.16634     -4878.3634      2683.2073    
      2600  -1816.1244      9.4399709     -1806.6844      298.08487     -2298.1374      2683.2073    
      2800  -1815.7197      9.2401383     -1806.4796      291.77478     -4979.3467      2683.2073    
      3000  -1815.2427      8.4773352     -1806.7653      267.68783     -4692.6148      2683.2073    
      3200  -1816.0008      8.4832057     -1807.5176      267.87321     -4101.201       2683.2073    
      3400  -1817.4421      9.4389865     -1808.0031      298.05378     -7495.8676      2683.2073    
      3600  -1816.5077      9.0658048     -1807.4419      286.26987     -4567.6202      2683.2073    
      3800  -1815.4409      8.454322      -1806.9866      266.96115      197.97243      2683.2073    
      4000  -1815.5538      9.4668823     -1806.0869      298.93465      1649.46        2683.2073    
      4200  -1815.3661      9.0621989     -1806.3039      286.15601     -5503.492       2683.2073    
      4400  -1815.6238      8.7331179     -1806.8907      275.76465     -8644.8689      2683.2073    
      4600  -1815.6534      8.4250271     -1807.2284      266.03611      1698.5612      2683.2073    
      4800  -1816.1676      9.1475282     -1807.0201      288.85044     -5090.2122      2683.2073    
      5000  -1815.4154      8.8536021     -1806.5618      279.56917     -9469.3582      2683.2073    
      5200  -1816.0188      8.9425202     -1807.0763      282.37693     -3569.6851      2683.2073    
      5400  -1816.5254      9.1886832     -1807.3368      290.14999     -3301.512       2683.2073    
      5600  -1816.8509      9.5523889     -1807.2985      301.63468     -4912.9479      2683.2073    
      5800  -1815.9923      8.5209572     -1807.4713      269.06528     -11494.072      2683.2073    
      6000  -1815.419       8.4698649     -1806.9491      267.45195     -4612.6427      2683.2073    
      6200  -1815.9693      9.6159612     -1806.3533      303.64209     -3773.8748      2683.2073    
      6400  -1815.0535      8.1368845     -1806.9166      256.93746     -12269.808      2683.2073    
      6600  -1815.9511      8.3907089     -1807.5604      264.95244     -4222.9111      2683.2073    
      6800  -1816.4068      8.9862786     -1807.4206      283.75868     -6195.784       2683.2073    
      7000  -1816.5381      9.1733224     -1807.3648      289.66494     -7510.6887      2683.2073    
      7200  -1815.9572      8.7267042     -1807.2305      275.56213     -13566.273      2683.2073    
      7400  -1816.512       9.4964764     -1807.0156      299.86914     -9027.308       2683.2073    
      7600  -1816.3044      8.844503      -1807.4599      279.28185     -3981.0521      2683.2073    
      7800  -1816.4392      8.0224757     -1808.4167      253.32479     -1266.199       2683.2073    
      8000  -1816.8557      8.5260212     -1808.3296      269.22519     -8802.3207      2683.2073    
      8200  -1816.3736      9.021931      -1807.3517      284.88447     -6176.5917      2683.2073    
      8400  -1815.6466      8.9022673     -1806.7443      281.10587      2160.4254      2683.2073    
      8600  -1815.6457      9.0456933     -1806.6         285.63481     -1994.3335      2683.2073    
      8800  -1816.579       9.6725112     -1806.9065      305.42777     -4138.2739      2683.2073    
      9000  -1816.1504      8.6060792     -1807.5443      271.75317     -2329.0142      2683.2073    
      9200  -1816.8382      8.232226      -1808.6059      259.94805     -3736.8911      2683.2073    
      9400  -1817.4516      9.1539823     -1808.2976      289.05424     -2167.7103      2683.2073    
      9600  -1815.9871      8.7308723     -1807.2563      275.69374     -2925.5088      2683.2073    
      9800  -1816.8979      10.170137     -1806.7278      321.14125     -6959.0744      2683.2073    
     10000  -1815.1807      8.0307433     -1807.15        253.58585     -4674.6172      2683.2073    
     10200  -1815.6911      8.7951289     -1806.896       277.72277     -4652.9143      2683.2073    
     10400  -1815.8551      9.4345417     -1806.4206      297.91343     -4432.0772      2683.2073    
     10600  -1816.4407      9.5299447     -1806.9107      300.92596     -5577.0589      2683.2073    
     10800  -1816.1954      8.5868736     -1807.6085      271.14672     -7321.1821      2683.2073    
     11000  -1816.1821      8.6263911     -1807.5557      272.39456     -5211.6912      2683.2073    
     11200  -1816.6012      8.5750619     -1808.0262      270.77374     -2117.6217      2683.2073    
     11400  -1816.9254      8.7603952     -1808.165       276.62599      2242.507       2683.2073    
     11600  -1816.0747      8.2424491     -1807.8322      260.27086     -812.43525      2683.2073    
     11800  -1816.1106      8.996664      -1807.1139      284.08662     -8736.6638      2683.2073    
     12000  -1816.435       10.013533     -1806.4215      316.19616     -9724.6914      2683.2073    
     12200  -1816.1381      9.1271988     -1807.0109      288.2085      -1888.7667      2683.2073    
     12400  -1816.5667      8.3012381     -1808.2654      262.12724     -4080.1322      2683.2073    
     12600  -1815.9815      7.9288743     -1808.0526      250.36915     -5023.6835      2683.2073    
     12800  -1815.3937      8.8377842     -1806.5559      279.06969     -8013.2821      2683.2073    
     13000  -1815.4374      9.275699      -1806.1618      292.89768     -3516.7249      2683.2073    
     13200  -1816.047       9.8902714     -1806.1567      312.30396     -2983.224       2683.2073    
     13400  -1815.5211      9.0453817     -1806.4757      285.62497     -7643.2251      2683.2073    
     13600  -1815.7065      8.7452221     -1806.9613      276.14687     -9913.2175      2683.2073    
     13800  -1815.8548      8.8380428     -1807.0167      279.07786      784.66765      2683.2073    
     14000  -1815.77        9.0198011     -1806.7502      284.81722     -1246.8041      2683.2073    
     14200  -1815.6005      9.3060342     -1806.2944      293.85556     -5266.872       2683.2073    
     14400  -1815.344       8.9163389     -1806.4276      281.5502      -9435.0647      2683.2073    
     14600  -1815.6209      8.8532986     -1806.7676      279.55959     -2206.5519      2683.2073    
     14800  -1816.0417      8.9670596     -1807.0746      283.1518      -5578.4953      2683.2073    
     15000  -1816.0243      8.4944108     -1807.5299      268.22703     -10662.837      2683.2073    
     15200  -1815.6822      8.2039266     -1807.4783      259.05444     -6663.1503      2683.2073    
     15400  -1816.3329      8.6845438     -1807.6484      274.23084     -3271.462       2683.2073    
     15600  -1816.4069      8.9202077     -1807.4867      281.67237     -5197.2905      2683.2073    
     15800  -1816.0691      8.7191507     -1807.35        275.32361     -2206.6928      2683.2073    
     16000  -1816.1761      8.9908611     -1807.1852      283.90338     -6393.0056      2683.2073    
     16200  -1816.4966      8.8416381     -1807.6549      279.19139     -2629.2324      2683.2073    
     16400  -1816.6115      8.4124171     -1808.1991      265.63792     -3959.8274      2683.2073    
     16600  -1816.7412      8.5372765     -1808.204       269.58059     -2998.6722      2683.2073    
     16800  -1816.3563      9.2044335     -1807.1518      290.64733     -4590.5296      2683.2073    
     17000  -1815.8901      8.8030481     -1807.0871      277.97283     -6440.2919      2683.2073    
     17200  -1815.2694      8.8231093     -1806.4463      278.6063      -3378.6549      2683.2073    
     17400  -1815.0646      9.0567507     -1806.0079      285.98397     -7993.4067      2683.2073    
     17600  -1815.4736      8.354055      -1807.1196      263.79503     -2660.2747      2683.2073    
     17800  -1816.4154      8.3794654     -1808.0359      264.59741     -2142.7774      2683.2073    
     18000  -1816.272       8.8316239     -1807.4404      278.87517     -4744.8481      2683.2073    
     18200  -1815.3238      8.832523      -1806.4913      278.90356     -7097.8351      2683.2073    
     18400  -1815.2362      9.128228      -1806.108       288.241       -5969.1374      2683.2073    
     18600  -1815.553       9.148496      -1806.4045      288.881       -5990.6535      2683.2073    
     18800  -1816.0049      8.8153703     -1807.1895      278.36193     -4441.418       2683.2073    
     19000  -1816.3722      9.206229      -1807.1659      290.70403     -4522.8927      2683.2073    
     19200  -1815.6098      9.600157      -1806.0096      303.14305     -3232.5345      2683.2073    
     19400  -1814.6407      8.6213205     -1806.0194      272.23444     -10788.5        2683.2073    
     19600  -1815.3786      9.2119052     -1806.1667      290.88326     -5798.5432      2683.2073    
     19800  -1815.3778      9.3069274     -1806.0709      293.88377     -799.56661      2683.2073    
     20000  -1814.6514      8.2821331     -1806.3693      261.52396     -82.930245      2683.2073    
     20200  -1816.1768      9.4424528     -1806.7344      298.16324     -1953.9631      2683.2073    
     20400  -1815.4085      8.9363734     -1806.4722      282.18283     -12185.063      2683.2073    
     20600  -1815.8777      9.2890042     -1806.5887      293.31781     -9400.4531      2683.2073    
     20800  -1816.1295      9.3848174     -1806.7447      296.34329      371.90308      2683.2073    
     21000  -1815.8338      8.7414384     -1807.0924      276.02739      1131.6175      2683.2073    
     21200  -1817.3465      9.3718628     -1807.9747      295.93423     -10414.669      2683.2073    
     21400  -1817.7416      8.5346438     -1809.207       269.49746     -10146.102      2683.2073    
     21600  -1817.2426      7.6171534     -1809.6254      240.52597      107.23647      2683.2073    
     21800  -1816.979       8.4009791     -1808.578       265.27675     -5182.532       2683.2073    
     22000  -1815.4327      8.5117858     -1806.9209      268.77568     -5131.4176      2683.2073    
     22200  -1815.9642      9.6640006     -1806.3002      305.15903     -9101.6356      2683.2073    
     22400  -1815.8944      9.1212945     -1806.7731      288.02206     -4230.3846      2683.2073    
     22600  -1815.5933      7.6453911     -1807.9479      241.41763     -11693.349      2683.2073    
     22800  -1816.5296      8.5642297     -1807.9653      270.43169     -3696.4673      2683.2073    
     23000  -1816.1206      9.5600172     -1806.5606      301.87556     -8505.6676      2683.2073    
     23200  -1814.8629      9.6070831     -1805.2558      303.36175     -5492.9099      2683.2073    
     23400  -1815.4902      9.7826267     -1805.7075      308.90487     -8137.7165      2683.2073    
     23600  -1815.0559      8.5188756     -1806.5371      268.99955     -8247.9249      2683.2073    
     23800  -1815.5489      8.8804497     -1806.6684      280.41693     -4185.104       2683.2073    
     24000  -1816.2084      9.8426429     -1806.3657      310.8         -1477.7557      2683.2073    
     24200  -1815.7228      9.2253713     -1806.4974      291.30848     -6757.5946      2683.2073    
     24400  -1815.4176      8.5375472     -1806.88        269.58914      3111.8581      2683.2073    
     24600  -1816.1952      8.9433276     -1807.2518      282.40242     -9888.8785      2683.2073    
     24800  -1815.7437      9.0403921     -1806.7033      285.46742     -3134.1728      2683.2073    
     25000  -1815.1079      9.0116949     -1806.0962      284.56125     -615.46525      2683.2073    
     25200  -1815.0389      8.9681439     -1806.0707      283.18604      51.627027      2683.2073    
     25400  -1813.9273      8.1550054     -1805.7722      257.50966     -8546.5753      2683.2073    
     25600  -1815.2465      9.4096259     -1805.8369      297.12667     -5555.9969      2683.2073    
     25800  -1816.1467      9.695272      -1806.4514      306.14648      1551.061       2683.2073    
     26000  -1816.2004      8.9179497     -1807.2824      281.60107     -3053.0692      2683.2073    
     26200  -1816.2029      8.488399      -1807.7145      268.03719     -8298.6056      2683.2073    
     26400  -1816.426       8.4872236     -1807.9387      268.00008     -4791.5893      2683.2073    
     26600  -1816.095       8.4939539     -1807.601       268.2126      -6381.6856      2683.2073    
     26800  -1816.6803      9.2684546     -1807.4118      292.66892     -1970.7392      2683.2073    
     27000  -1816.436       9.1307795     -1807.3053      288.32157     -5636.677       2683.2073    
     27200  -1815.7627      8.303589      -1807.4592      262.20147     -9988.9738      2683.2073    
     27400  -1816.1436      8.3546461     -1807.7889      263.81369     -3306.8245      2683.2073    
     27600  -1815.8742      8.9095746     -1806.9646      281.33661     -1865.3839      2683.2073    
     27800  -1815.5386      9.1724543     -1806.3661      289.63753     -8979.3295      2683.2073    
     28000  -1815.0604      8.1854443     -1806.8749      258.47083     -9081.3191      2683.2073    
     28200  -1815.8535      8.7087016     -1807.1448      274.99366     -2724.5863      2683.2073    
     28400  -1815.1945      8.1437288     -1807.0508      257.15358     -11592.488      2683.2073    
     28600  -1816.1902      9.1391007     -1807.0511      288.58433     -10590.148      2683.2073    
     28800  -1816.3572      9.1518426     -1807.2053      288.98668     -5242.6188      2683.2073    
     29000  -1816.8768      9.7427283     -1807.1341      307.64501      3011.2631      2683.2073    
     29200  -1816.1727      9.0779402     -1807.0947      286.65307     -4493.393       2683.2073    
     29400  -1815.0378      8.2031357     -1806.8347      259.02947     -8193.3624      2683.2073    
     29600  -1815.2758      9.4492868     -1805.8265      298.37904     -3283.747       2683.2073    
     29800  -1814.5511      9.5988794     -1804.9522      303.10271     -1193.0559      2683.2073    
     30000  -1814.8607      8.7346283     -1806.1261      275.81235     -2318.3628      2683.2073    
     30200  -1815.4491      8.4768869     -1806.9722      267.67368     -3672.3457      2683.2073    
     30400  -1815.9111      8.7379296     -1807.1732      275.91659     -4082.6627      2683.2073    
     30600  -1815.3715      8.4687867     -1806.9027      267.4179      -6432.9539      2683.2073    
     30800  -1814.903       9.2273234     -1805.6757      291.37012     -8851.7203      2683.2073    
     31000  -1814.4366      9.1223092     -1805.3143      288.0541       269.97631      2683.2073    
     31200  -1814.852       9.197539      -1805.6545      290.42963     -3654.5237      2683.2073    
     31400  -1815.4375      9.0635869     -1806.3739      286.19984     -12327.654      2683.2073    
     31600  -1815.7116      8.5632726     -1807.1484      270.40147     -6061.7929      2683.2073    
     31800  -1814.6748      8.3871462     -1806.2876      264.83995     -10655.529      2683.2073    
     32000  -1814.8967      9.2693549     -1805.6273      292.69735     -2370.5094      2683.2073    
     32200  -1815.5707      9.5151919     -1806.0555      300.46011     -237.04352      2683.2073    
     32400  -1815.6164      8.8236758     -1806.7928      278.62419     -5256.8609      2683.2073    
     32600  -1815.7169      8.3888062     -1807.3281      264.89236     -6689.7764      2683.2073    
     32800  -1815.7914      9.136766      -1806.6546      288.51061     -6505.413       2683.2073    
     33000  -1815.7109      9.6970761     -1806.0138      306.20345     -3419.7979      2683.2073    
     33200  -1815.1874      8.8710896     -1806.3164      280.12137     -7600.8576      2683.2073    
     33400  -1815.3801      8.9632167     -1806.4169      283.03046     -6559.0221      2683.2073    
     33600  -1815.6125      9.2685941     -1806.3439      292.67332     -2269.9436      2683.2073    
     33800  -1815.7578      9.4481239     -1806.3097      298.34232     -5058.0785      2683.2073    
     34000  -1815.3782      8.934078      -1806.4441      282.11035     -4389.5277      2683.2073    
     34200  -1815.944       9.0843847     -1806.8596      286.85657     -5960.0216      2683.2073    
     34400  -1815.2517      8.7724179     -1806.4793      277.00562     -6419.0214      2683.2073    
     34600  -1814.9464      9.6937925     -1805.2526      306.09977     -283.4173       2683.2073    
     34800  -1813.3353      8.3696113     -1804.9657      264.28625     -1675.6346      2683.2073    
     35000  -1815.0313      9.3019046     -1805.7294      293.72517     -5236.6743      2683.2073    
     35200  -1815.682       9.0536619     -1806.6283      285.88644     -5906.3398      2683.2073    
     35400  -1816.1671      9.3571856     -1806.8099      295.47077     -6194.3445      2683.2073    
     35600  -1815.1749      7.8522561     -1807.3226      247.94978     -2661.7067      2683.2073    
     35800  -1816.0552      8.6879001     -1807.3673      274.33682     -2533.8787      2683.2073    
     36000  -1815.4157      8.8415035     -1806.5742      279.18713     -692.76716      2683.2073    
     36200  -1814.0816      8.7917129     -1805.2899      277.6149      -4981.3656      2683.2073    
     36400  -1814.1401      9.5406916     -1804.5994      301.26532     -8290.4267      2683.2073    
     36600  -1814.004       8.518055      -1805.4859      268.97364     -2781.0869      2683.2073    
     36800  -1815.6992      8.7225778     -1806.9766      275.43183     -3611.9444      2683.2073    
     37000  -1816.276       9.0573453     -1807.2187      286.00275     -2127.9636      2683.2073    
     37200  -1815.6946      8.540343      -1807.1543      269.67742     -8250.7423      2683.2073    
     37400  -1815.5882      8.7779422     -1806.8102      277.18006     -7349.0251      2683.2073    
     37600  -1816.1303      10.601576     -1805.5287      334.76473     -5440.7166      2683.2073    
     37800  -1814.6883      8.7523944     -1805.9359      276.37335     -7581.7619      2683.2073    
     38000  -1815.2342      8.5428049     -1806.6914      269.75516     -10668.901      2683.2073    
     38200  -1815.4042      7.948028      -1807.4562      250.97396     -3867.5239      2683.2073    
     38400  -1816.3154      9.0375697     -1807.2779      285.37829     -3265.6445      2683.2073    
     38600  -1815.6974      8.9868553     -1806.7106      283.77689     -6374.4899      2683.2073    
     38800  -1815.5538      9.0762614     -1806.4775      286.60006     -7954.5132      2683.2073    
     39000  -1815.4194      8.3351764     -1807.0842      263.1989      -2367.4004      2683.2073    
     39200  -1815.5622      8.5637028     -1806.9985      270.41505     -6692.9453      2683.2073    
     39400  -1815.2065      9.0126801     -1806.1939      284.59236     -4825.8253      2683.2073    
     39600  -1814.6399      9.4909644     -1805.1489      299.69508     -5582.7712      2683.2073    
     39800  -1814.7608      8.9084054     -1805.8524      281.29969     -483.95719      2683.2073    
     40000  -1815.98        9.2358002     -1806.7442      291.6378      -5672.5358      2683.2073    
     40200  -1815.201       8.387875      -1806.8131      264.86296     -10897.406      2683.2073    
     40400  -1815.337       9.2843856     -1806.0526      293.17197     -6434.8302      2683.2073    
     40600  -1815.8992      9.9987682     -1805.9005      315.72995     -1494.1327      2683.2073    
     40800  -1815.8054      9.2393926     -1806.566       291.75123     -4428.8767      2683.2073    
     41000  -1816.4307      9.3216603     -1807.1091      294.34899     -7905.4495      2683.2073    
     41200  -1815.6208      8.4838465     -1807.1369      267.89344     -10469.188      2683.2073    
     41400  -1815.4783      8.8919829     -1806.5863      280.78112     -53.379803      2683.2073    
     41600  -1815.756       9.2512502     -1806.5048      292.12566     -5430.0615      2683.2073    
     41800  -1815.4644      9.3268671     -1806.1375      294.5134      -8706.7024      2683.2073    
     42000  -1814.5651      8.7447326     -1805.8203      276.13141     -6537.5009      2683.2073    
     42200  -1816.3486      10.029445     -1806.3192      316.69861      579.44049      2683.2073    
     42400  -1816.8309      9.5504044     -1807.2805      301.57202     -2119.4148      2683.2073    
     42600  -1816.2416      8.5820512     -1807.6595      270.99444     -14233.762      2683.2073    
     42800  -1815.6887      8.1714535     -1807.5173      258.02904     -8129.6371      2683.2073    
     43000  -1815.3196      8.747192      -1806.5724      276.20907     -377.50248      2683.2073    
     43200  -1815.5491      10.014297     -1805.5348      316.22031     -3032.0593      2683.2073    
     43400  -1815.114       8.2730358     -1806.841       261.23669     -2371.6859      2683.2073    
     43600  -1816.3904      8.7717842     -1807.6187      276.98562     -1442.3535      2683.2073    
     43800  -1815.7496      8.138335      -1807.6112      256.98326     -3133.2433      2683.2073    
     44000  -1815.4639      8.1986165     -1807.2653      258.88676     -3183.7286      2683.2073    
     44200  -1815.2608      9.0604747     -1806.2003      286.10156     -2694.1043      2683.2073    
     44400  -1815.1236      9.6517298     -1805.4719      304.77156     -3962.4993      2683.2073    
     44600  -1815.0391      9.2491128     -1805.79        292.05816     -9074.2748      2683.2073    
     44800  -1815.1737      8.720585      -1806.4531      275.3689      -4437.7907      2683.2073    
     45000  -1815.1936      8.5898303     -1806.6038      271.24008     -855.65757      2683.2073    
     45200  -1814.5669      8.430322      -1806.1366      266.2033      -7671.8607      2683.2073    
     45400  -1814.0186      9.5061945     -1804.5124      300.176       -3314.8494      2683.2073    
     45600  -1813.7361      9.5261233     -1804.2099      300.8053      -7068.089       2683.2073    
     45800  -1814.6429      9.209061      -1805.4338      290.79345     -3302.7792      2683.2073    
     46000  -1815.1017      8.6130521     -1806.4887      271.97335     -11640.989      2683.2073    
     46200  -1815.1029      8.5262157     -1806.5767      269.23133     -4093.55        2683.2073    
     46400  -1815.2107      9.2224834     -1805.9882      291.21729     -4760.5748      2683.2073    
     46600  -1814.6348      8.9762362     -1805.6586      283.44157     -2078.7778      2683.2073    
     46800  -1815.514       9.7807922     -1805.7332      308.84694     -9332.4565      2683.2073    
     47000  -1815.3862      8.9620294     -1806.4242      282.99297     -8363.4205      2683.2073    
     47200  -1815.7827      8.8609761     -1806.9217      279.80202     -1903.4895      2683.2073    
     47400  -1814.9846      8.5709598     -1806.4137      270.64421     -5411.1952      2683.2073    
     47600  -1815.0134      9.152948      -1805.8605      289.02158     -2243.3922      2683.2073    
     47800  -1815.3564      9.2926779     -1806.0637      293.43381     -5958.2351      2683.2073    
     48000  -1815.6763      9.4764225     -1806.1998      299.2359       3641.8397      2683.2073    
     48200  -1815.3832      8.9116292     -1806.4716      281.40148     -1073.9058      2683.2073    
     48400  -1816.1728      9.2233756     -1806.9495      291.24547     -2792.7742      2683.2073    
     48600  -1816.1062      8.5222979     -1807.5839      269.10762     -4482.7956      2683.2073    
     48800  -1816.0271      8.2724035     -1807.7547      261.21673     -4991.811       2683.2073    
     49000  -1815.5181      8.5042521     -1807.0138      268.53778     -5845.3486      2683.2073    
     49200  -1815.4278      9.0347849     -1806.393       285.29036     -5119.9881      2683.2073    
     49400  -1815.334       9.3500873     -1805.984       295.24663     -3712.3779      2683.2073    
     49600  -1815.1412      8.4170843     -1806.7241      265.7853      -2296.3284      2683.2073    
     49800  -1815.2277      8.4065266     -1806.8212      265.45192     -6626.6138      2683.2073    
     50000  -1815.1455      8.2294687     -1806.916       259.86098     -8969.9104      2683.2073    
     50200  -1815.5876      8.5163929     -1807.0712      268.92115     -4968.2284      2683.2073    
     50400  -1815.4903      8.3625928     -1807.1277      264.06463      1493.2587      2683.2073    
     50600  -1815.4115      7.7935459     -1807.618       246.0959      -3027.5112      2683.2073    
     50800  -1816.6684      8.8228836     -1807.8455      278.59917     -7769.7218      2683.2073    
     51000  -1816.094       8.4052792     -1807.6887      265.41253     -3287.7574      2683.2073    
     51200  -1816.1572      9.4963866     -1806.6608      299.8663      -3675.1247      2683.2073    
     51400  -1814.5292      9.1723413     -1805.3568      289.63396     -8420.6837      2683.2073    
     51600  -1814.3115      9.4226646     -1804.8889      297.53839     -4188.4216      2683.2073    
     51800  -1815.8954      9.7189866     -1806.1764      306.89532     -207.95453      2683.2073    
     52000  -1815.8306      8.4055592     -1807.425       265.42137     -13.579021      2683.2073    
     52200  -1815.3368      7.9272896     -1807.4095      250.31911     -4180.7945      2683.2073    
     52400  -1816.0313      9.5580956     -1806.4732      301.81488     -5785.1334      2683.2073    
     52600  -1815.8863      10.057612     -1805.8287      317.58807      927.77678      2683.2073    
     52800  -1816.1084      9.5832571     -1806.5251      302.6094      -6785.9555      2683.2073    
     53000  -1816.1393      8.5148855     -1807.6244      268.87356     -6634.3574      2683.2073    
     53200  -1816.5391      8.746146      -1807.793       276.17604      768.05996      2683.2073    
     53400  -1816.8256      9.1611388     -1807.6645      289.28022     -714.30219      2683.2073    
     53600  -1816.1052      8.9273233     -1807.1779      281.89706     -8073.5416      2683.2073    
     53800  -1815.8945      9.4414588     -1806.453       298.13185     -5646.5505      2683.2073    
     54000  -1815.5326      9.6117822     -1805.9209      303.51014     -5677.467       2683.2073    
     54200  -1815.2502      8.8940625     -1806.3562      280.84678     -1757.0537      2683.2073    
     54400  -1815.7185      9.0325146     -1806.686       285.21867     -5346.0387      2683.2073    
     54600  -1815.3368      8.8297969     -1806.507       278.81747     -5979.2263      2683.2073    
     54800  -1816.2617      9.0352407     -1807.2265      285.30475     -2260.6182      2683.2073    
     55000  -1816.9461      8.9257945     -1808.0203      281.84878     -6070.8051      2683.2073    
     55200  -1816.433       8.6188841     -1807.8141      272.15751     -2386.3458      2683.2073    
     55400  -1816.5775      8.7194761     -1807.8581      275.33389     -4761.1365      2683.2073    
     55600  -1816.8291      9.1065195     -1807.7226      287.55551     -5201.4298      2683.2073    
     55800  -1815.8857      8.6750379     -1807.2107      273.93067     -3184.3336      2683.2073    
     56000  -1815.8854      8.6713045     -1807.2141      273.81278     -3543.9343      2683.2073    
     56200  -1816.1627      8.5896383     -1807.5731      271.23401      2722.6028      2683.2073    
     56400  -1816.8724      9.1107353     -1807.7617      287.68864     -6087.8815      2683.2073    
     56600  -1816.4876      8.6896474     -1807.7979      274.39199     -2132.8391      2683.2073    
     56800  -1817.1037      8.9820349     -1808.1216      283.62468     -6336.4403      2683.2073    
     57000  -1816.9555      8.694313      -1808.2611      274.53932      23.012761      2683.2073    
     57200  -1817.0932      8.6549643     -1808.4382      273.29681      1303.9055      2683.2073    
     57400  -1816.9234      8.1699944     -1808.7534      257.98297     -3535.8723      2683.2073    
     57600  -1817.6546      8.9375637     -1808.717       282.22042     -5343.0597      2683.2073    
     57800  -1817.4237      9.0727505     -1808.351       286.48919      105.36104      2683.2073    
     58000  -1817.2207      9.4089386     -1807.8117      297.10496     -3314.7626      2683.2073    
     58200  -1816.9449      9.0707354     -1807.8741      286.42556      152.71247      2683.2073    
     58400  -1817.4372      9.3263776     -1808.1108      294.49795     -7544.0283      2683.2073    
     58600  -1817.1988      8.7562994     -1808.4425      276.49665     -5960.4189      2683.2073    
     58800  -1816.8758      8.5237876     -1808.352       269.15466      2159.5492      2683.2073    
     59000  -1816.6507      8.8387243     -1807.812       279.09938     -1781.5026      2683.2073    
     59200  -1815.2713      9.4927316     -1805.7786      299.75089     -151.68076      2683.2073    
     59400  -1815.7187      10.154003     -1805.5647      320.63178     -874.98849      2683.2073    
     59600  -1815.4757      8.5329288     -1806.9427      269.44331     -9403.5169      2683.2073    
     59800  -1816.635       8.7683534     -1807.8666      276.87728     -5257.8856      2683.2073    
     60000  -1817.395       9.0363681     -1808.3587      285.34035     -6036.2841      2683.2073    
     60200  -1816.8205      8.6001358     -1808.2203      271.56549     -3732.2185      2683.2073    
     60400  -1814.9418      8.7065449     -1806.2352      274.92556     -3123.7162      2683.2073    
     60600  -1815.6065      9.5784928     -1806.028       302.45896     -4413.908       2683.2073    
     60800  -1816.4731      9.2939267     -1807.1792      293.47325      5152.3533      2683.2073    
     61000  -1815.9219      8.0984567     -1807.8234      255.72403     -926.42245      2683.2073    
     61200  -1816.4946      8.855931      -1807.6386      279.64271     -7589.0893      2683.2073    
     61400  -1815.6117      9.0721169     -1806.5395      286.46919     -5524.4762      2683.2073    
     61600  -1816.3236      10.185848     -1806.1378      321.63735      4551.7387      2683.2073    
     61800  -1815.4652      9.1495085     -1806.3157      288.91297     -3299.6903      2683.2073    
     62000  -1815.2238      8.470888      -1806.7529      267.48425     -9147.3452      2683.2073    
     62200  -1816.0692      8.5189486     -1807.5502      269.00186     -14293.702      2683.2073    
     62400  -1816.2147      9.1326346     -1807.0821      288.38015     -5711.0538      2683.2073    
     62600  -1815.4193      9.454095      -1805.9652      298.53087     -3886.8873      2683.2073    
     62800  -1814.8299      8.9829052     -1805.847       283.65216     -1937.0491      2683.2073    
     63000  -1814.5147      8.8401638     -1805.6745      279.14483     -1158.7403      2683.2073    
     63200  -1814.5751      8.8741959     -1805.7009      280.21946     -612.78995      2683.2073    
     63400  -1816.1378      9.5361065     -1806.6017      301.12053     -5116.9752      2683.2073    
     63600  -1817.3283      9.5126309     -1807.8157      300.37925     -10527.412      2683.2073    
     63800  -1817.1868      8.5639796     -1808.6228      270.42379     -2101.3023      2683.2073    
     64000  -1816.3649      8.4470807     -1807.9178      266.73249      1041.8705      2683.2073    
     64200  -1815.8276      9.1360294     -1806.6915      288.48734      3892.2308      2683.2073    
     64400  -1815.6623      9.1604267     -1806.5019      289.25773     -5356.1298      2683.2073    
     64600  -1816.3129      9.2960765     -1807.0168      293.54113     -9536.4972      2683.2073    
     64800  -1817.1024      8.7198061     -1808.3826      275.34431     -1537.2892      2683.2073    
     65000  -1816.6553      7.4287479     -1809.2266      234.57671     -8605.8391      2683.2073    
     65200  -1816.8832      8.5833916     -1808.2998      271.03676     -5670.473       2683.2073    
     65400  -1816.404       9.219657      -1807.1843      291.12804     -5972.4812      2683.2073    
     65600  -1816.4324      9.6341232     -1806.7983      304.21559      520.49345      2683.2073    
     65800  -1816.2355      9.3644275     -1806.8711      295.69944     -1872.1054      2683.2073    
     66000  -1815.4022      8.5478205     -1806.8544      269.91354     -1734.2504      2683.2073    
     66200  -1815.1432      9.1493647     -1805.9938      288.90843     -4539.8048      2683.2073    
     66400  -1814.7405      9.141693      -1805.5988      288.66618     -1597.3356      2683.2073    
     66600  -1815.8121      9.4854609     -1806.3267      299.5213       663.83448      2683.2073    
     66800  -1816.2489      9.012745      -1807.2361      284.59441     -1888.3408      2683.2073    
     67000  -1815.8799      8.4758336     -1807.404       267.64042     -6889.8127      2683.2073    
     67200  -1815.9399      8.4939185     -1807.446       268.21148     -6961.3284      2683.2073    
     67400  -1816.5911      9.6021421     -1806.989       303.20573     -5591.7422      2683.2073    
     67600  -1815.4803      9.3293128     -1806.1509      294.59063     -3128.2916      2683.2073    
     67800  -1815.5506      9.6667662     -1805.8838      305.24636     -8866.4996      2683.2073    
     68000  -1815.497       8.6566134     -1806.8403      273.34888     -4392.7959      2683.2073    
     68200  -1816.1063      8.7100704     -1807.3962      275.03689     -4340.486       2683.2073    
     68400  -1815.6814      8.2488634     -1807.4326      260.47341     -5633.2931      2683.2073    
     68600  -1815.9784      9.3172054     -1806.6611      294.20832     -2186.673       2683.2073    
     68800  -1816.0226      9.5603048     -1806.4623      301.88464      690.53642      2683.2073    
     69000  -1815.4045      8.0802011     -1807.3243      255.14758     -3030.7937      2683.2073    
     69200  -1816.3552      8.4797762     -1807.8755      267.76491     -3029.0444      2683.2073    
     69400  -1815.9147      8.5605078     -1807.3542      270.31417     -2152.2006      2683.2073    
     69600  -1815.4885      8.581683      -1806.9068      270.98281     -3773.5232      2683.2073    
     69800  -1815.6143      9.0496489     -1806.5646      285.75972     -4867.4712      2683.2073    
     70000  -1815.7391      8.9134941     -1806.8256      281.46037     -8001.1204      2683.2073    
     70200  -1816.2126      8.8971568     -1807.3154      280.94449     -5238.4185      2683.2073    
     70400  -1816.753       9.0952154     -1807.6578      287.19857      1448.4664      2683.2073    
     70600  -1816.3106      8.7013898     -1807.6092      274.76278     -2708.6794      2683.2073    
     70800  -1815.6933      8.8666988     -1806.8266      279.98272     -2894.3999      2683.2073    
     71000  -1815.1244      9.2699582     -1805.8545      292.7164      -6666.9394      2683.2073    
     71200  -1816.009       9.7907938     -1806.2182      309.16276      2299.054       2683.2073    
     71400  -1815.9298      8.8762397     -1807.0535      280.284       -7375.9381      2683.2073    
     71600  -1815.9498      8.3524926     -1807.5973      263.74569     -7964.6332      2683.2073    
     71800  -1815.6124      8.1847696     -1807.4277      258.44952     -4790.4889      2683.2073    
     72000  -1816.0959      9.1243256     -1806.9716      288.11777     -665.3739       2683.2073    
     72200  -1816.16        9.2407707     -1806.9192      291.79475     -7035.8627      2683.2073    
     72400  -1816.276       9.1759271     -1807.1001      289.74719     -3544.7709      2683.2073    
     72600  -1816.3252      8.5537553     -1807.7714      270.10094     -871.6296       2683.2073    
     72800  -1816.2432      7.4923133     -1808.7509      236.58391     -4546.5783      2683.2073    
     73000  -1816.6851      8.6676489     -1808.0175      273.69735     -9074.2983      2683.2073    
     73200  -1815.4915      8.9352935     -1806.5562      282.14873     -13062.258      2683.2073    
     73400  -1815.1291      8.7554306     -1806.3737      276.46922      994.64082      2683.2073    
     73600  -1815.8654      9.4507679     -1806.4147      298.42581     -4859.336       2683.2073    
     73800  -1815.7156      9.232139      -1806.4835      291.52219     -5303.5969      2683.2073    
     74000  -1814.659       8.3952785     -1806.2637      265.09674     -8910.1843      2683.2073    
     74200  -1815.0855      9.0454954     -1806.04        285.62856      782.17027      2683.2073    
     74400  -1814.559       8.8099196     -1805.7491      278.18981     -3674.219       2683.2073    
     74600  -1814.4628      7.8587518     -1806.6041      248.1549      -10139.381      2683.2073    
     74800  -1815.5252      8.6506246     -1806.8745      273.15977     -10302.387      2683.2073    
     75000  -1814.5891      8.6263729     -1805.9627      272.39398     -3977.8314      2683.2073    
     75200  -1814.5988      8.9346519     -1805.6641      282.12847     -6913.818       2683.2073    
     75400  -1815.4592      9.5636255     -1805.8956      301.9895      -9506.1271      2683.2073    
     75600  -1815.4341      9.2778323     -1806.1563      292.96504     -4889.3938      2683.2073    
     75800  -1815.3468      8.5950398     -1806.7517      271.40458     -2504.9345      2683.2073    
     76000  -1815.3362      8.1764328     -1807.1597      258.18627     -1543.4678      2683.2073    
     76200  -1815.5106      8.9186442     -1806.592       281.623       -7672.4088      2683.2073    
     76400  -1815.9378      9.6706278     -1806.2672      305.3683      -120.10706      2683.2073    
     76600  -1815.7348      8.5802839     -1807.1545      270.93863      1205.8537      2683.2073    
     76800  -1815.6142      8.1591894     -1807.455       257.64178     -3056.4708      2683.2073    
     77000  -1815.8006      8.6720107     -1807.1286      273.83508     -4105.8918      2683.2073    
     77200  -1816.5496      9.4524731     -1807.0971      298.47965     -3501.1333      2683.2073    
     77400  -1816.8001      9.6669079     -1807.1332      305.25083      2585.7889      2683.2073    
     77600  -1815.2445      8.2451861     -1806.9994      260.35729     -2549.0818      2683.2073    
     77800  -1816.2787      9.8059819     -1806.4727      309.64236     -5362.7503      2683.2073    
     78000  -1815.9654      9.2821048     -1806.6833      293.09995     -4060.9298      2683.2073    
     78200  -1815.568       8.4566589     -1807.1113      267.03494     -6265.1627      2683.2073    
     78400  -1815.4542      8.4473098     -1807.0068      266.73972     -7427.2542      2683.2073    
     78600  -1815.4024      8.6296403     -1806.7728      272.49716     -5573.9889      2683.2073    
     78800  -1815.826       9.1799934     -1806.646       289.87559     -11424.64       2683.2073    
     79000  -1815.1866      8.3377674     -1806.8488      263.28072     -4125.8003      2683.2073    
     79200  -1815.1467      8.5956438     -1806.551       271.42365     -3498.1684      2683.2073    
     79400  -1814.3468      8.6605406     -1805.6862      273.47289     -5105.5612      2683.2073    
     79600  -1814.6997      9.378399      -1805.3213      296.14062     -1902.4712      2683.2073    
     79800  -1815.3518      9.3021891     -1806.0496      293.73415      1436.7424      2683.2073    
     80000  -1815.343       8.4359858     -1806.9071      266.38215     -4464.8191      2683.2073    
     80200  -1815.3841      8.1444362     -1807.2396      257.17592     -5167.0435      2683.2073    
     80400  -1815.4139      8.6035909     -1806.8103      271.6746      -5383.5907      2683.2073    
     80600  -1814.9655      8.7571852     -1806.2083      276.52463     -6157.0487      2683.2073    
     80800  -1816.0679      9.8524299     -1806.2154      311.10904     -7639.4603      2683.2073    
     81000  -1814.9241      8.344397      -1806.5797      263.49006     -12064.709      2683.2073    
     81200  -1815.828       9.0882731     -1806.7398      286.97935     -4342.6507      2683.2073    
     81400  -1815.5997      8.5231249     -1807.0766      269.13373     -3771.3602      2683.2073    
     81600  -1815.719       9.4711669     -1806.2478      299.06994     -9271.7138      2683.2073    
     81800  -1814.6608      8.5451408     -1806.1157      269.82892     -11440.737      2683.2073    
     82000  -1815.5393      9.379034      -1806.1603      296.16067     -4229.125       2683.2073    
     82200  -1815.5054      8.7442316     -1806.7611      276.11559     -1207.7507      2683.2073    
     82400  -1815.9515      9.1251254     -1806.8264      288.14303      350.88917      2683.2073    
     82600  -1816.0839      8.9377969     -1807.1461      282.22778     -4774.558       2683.2073    
     82800  -1815.9388      8.5680074     -1807.3708      270.55098     -3238.0815      2683.2073    
     83000  -1815.6678      9.7092974     -1805.9585      306.58936      1109.1627      2683.2073    
     83200  -1815.0651      10.015496     -1805.0496      316.25815     -8478.1151      2683.2073    
     83400  -1814.2243      8.3185757     -1805.9057      262.6747      -10167.156      2683.2073    
     83600  -1816.1053      9.0517504     -1807.0535      285.82608     -6321.2356      2683.2073    
     83800  -1815.7535      8.1529593     -1807.6005      257.44505     -1660.2671      2683.2073    
     84000  -1816.3865      9.1607914     -1807.2257      289.26925     -3675.9458      2683.2073    
     84200  -1815.7025      8.9723154     -1806.7301      283.31777     -12005.546      2683.2073    
     84400  -1815.585       8.6920178     -1806.893       274.46684     -5515.88        2683.2073    
     84600  -1815.8865      8.3251849     -1807.5613      262.8834      -4349.1034      2683.2073    
     84800  -1815.838       8.1226661     -1807.7153      256.48849     -10138.989      2683.2073    
     85000  -1815.8385      8.6377663     -1807.2007      272.75375     -5444.7878      2683.2073    
     85200  -1815.3892      8.4496576     -1806.9396      266.81386     -4671.2545      2683.2073    
     85400  -1816.0291      9.1328093     -1806.8963      288.38566     -3663.8761      2683.2073    
     85600  -1815.8346      9.1776557     -1806.657       289.80177     -9465.3636      2683.2073    
     85800  -1815.7946      8.6667104     -1807.1279      273.66771     -4408.862       2683.2073    
     86000  -1815.5016      8.2731248     -1807.2284      261.2395      -10232.559      2683.2073    
     86200  -1815.8947      9.0295026     -1806.8651      285.12356     -2475.8156      2683.2073    
     86400  -1815.8652      9.1461173     -1806.719       288.80589     -7507.915       2683.2073    
     86600  -1815.3173      8.1712544     -1807.1461      258.02276     -9133.2109      2683.2073    
     86800  -1814.964       7.925698      -1807.0383      250.26885     -4529.2477      2683.2073    
     87000  -1815.1845      9.0327803     -1806.1517      285.22706     -1656.1478      2683.2073    
     87200  -1815.4332      9.0803997     -1806.3528      286.73073     -7098.7088      2683.2073    
     87400  -1815.9209      8.7332874     -1807.1876      275.77001     -7126.4589      2683.2073    
     87600  -1816.5367      8.6777552     -1807.8589      274.01647     -2970.9117      2683.2073    
     87800  -1815.9241      8.3707643     -1807.5533      264.32266     -4857.079       2683.2073    
     88000  -1815.2353      8.8979987     -1806.3373      280.97108     -4561.8047      2683.2073    
     88200  -1814.8081      9.4657384     -1805.3423      298.89853     -8358.4331      2683.2073    
     88400  -1814.6872      9.0666422     -1805.6206      286.29631     -2726.1023      2683.2073    
     88600  -1814.886       8.4882535     -1806.3977      268.0326      -1954.7056      2683.2073    
     88800  -1815.6059      8.6076803     -1806.9982      271.80373     -7621.0917      2683.2073    
     89000  -1816.0544      9.0803971     -1806.974       286.73065     -1388.2768      2683.2073    
     89200  -1815.3001      8.7530614     -1806.5471      276.39441     -638.83103      2683.2073    
     89400  -1815.4489      9.9421843     -1805.5067      313.9432      -3201.7397      2683.2073    
     89600  -1814.44        8.6012787     -1805.8388      271.60158     -8322.7261      2683.2073    
     89800  -1815.6483      8.8010899     -1806.8473      277.911       -3523.3126      2683.2073    
     90000  -1816.3893      8.723107      -1807.6662      275.44854      7359.4519      2683.2073    
     90200  -1816.3119      8.283552      -1808.0283      261.56876     -5318.2277      2683.2073    
     90400  -1815.4469      8.4728918     -1806.974       267.54753     -606.9294       2683.2073    
     90600  -1816.031       10.202888     -1805.8281      322.17542     -3098.1856      2683.2073    
     90800  -1815.3074      9.6229932     -1805.6844      303.86415     -2157.2884      2683.2073    
     91000  -1815.8629      9.593818      -1806.2691      302.94288     -4940.952       2683.2073    
     91200  -1816.3811      8.7545858     -1807.6266      276.44254     -10747.343      2683.2073    
     91400  -1816.6919      8.6236233     -1808.0683      272.30716     -1239.4451      2683.2073    
     91600  -1816.1091      8.4226367     -1807.6865      265.96062     -163.80839      2683.2073    
     91800  -1815.9465      8.1859488     -1807.7605      258.48676     -5945.6151      2683.2073    
     92000  -1815.7574      7.6641172     -1808.0933      242.00894     -3193.6825      2683.2073    
     92200  -1816.0153      8.8991504     -1807.1161      281.00744     -3868.1665      2683.2073    
     92400  -1815.2707      8.8658545     -1806.4049      279.95606     -5854.4585      2683.2073    
     92600  -1816.2831      9.2903802     -1806.9927      293.36126     -2846.6699      2683.2073    
     92800  -1815.7985      7.8947316     -1807.9037      249.29103     -9750.8906      2683.2073    
     93000  -1816.4891      8.8817929     -1807.6073      280.45935     -4725.1689      2683.2073    
     93200  -1816.323       8.9896204     -1807.3334      283.8642      -3525.4817      2683.2073    
     93400  -1816.4317      9.0850441     -1807.3467      286.87739     -3310.4383      2683.2073    
     93600  -1815.7406      8.6087309     -1807.1318      271.8369      -5291.7607      2683.2073    
     93800  -1815.7082      8.9678949     -1806.7403      283.17818      3647.0342      2683.2073    
     94000  -1816.7887      9.2713075     -1807.5173      292.75901     -8058.6774      2683.2073    
     94200  -1816.4707      8.4279038     -1808.0428      266.12694     -6697.0076      2683.2073    
     94400  -1816.7846      8.7837279     -1808.0008      277.36276     -472.93499      2683.2073    
     94600  -1816.3468      9.0606886     -1807.2861      286.10831     -2353.0133      2683.2073    
     94800  -1815.6543      8.22203       -1807.4323      259.62609     -4096.7252      2683.2073    
     95000  -1815.6477      8.7668524     -1806.8809      276.82988     -4275.0295      2683.2073    
     95200  -1815.5448      9.4866248     -1806.0581      299.55805     -3346.881       2683.2073    
     95400  -1814.4948      8.634494      -1805.8603      272.65042     -9620.7275      2683.2073    
     95600  -1815.3004      9.0152485     -1806.2851      284.67346     -3662.1062      2683.2073    
     95800  -1815.8944      8.6097274     -1807.2846      271.86837     -2546.205       2683.2073    
     96000  -1816.2692      8.3675702     -1807.9016      264.2218      -5786.3272      2683.2073    
     96200  -1815.9822      8.9843258     -1806.9979      283.69702     -4017.013       2683.2073    
     96400  -1814.7765      8.7682597     -1806.0082      276.87432     -3595.098       2683.2073    
     96600  -1815.3261      9.2414869     -1806.0846      291.81736      988.99803      2683.2073    
     96800  -1815.8655      8.8706529     -1806.9949      280.10758      3127.3604      2683.2073    
     97000  -1816.7952      9.1937883     -1807.6015      290.31119     -2095.087       2683.2073    
     97200  -1816.0388      8.3559939     -1807.6828      263.85625     -5563.5065      2683.2073    
     97400  -1816.0357      8.8704862     -1807.1652      280.10232     -8149.2021      2683.2073    
     97600  -1815.365       9.3345527     -1806.0304      294.75609     -6509.1965      2683.2073    
     97800  -1815.2866      9.1118477     -1806.1748      287.72376     -13.718824      2683.2073    
     98000  -1816.4462      8.7039707     -1807.7422      274.84428     -4880.5323      2683.2073    
     98200  -1816.96        8.6443428     -1808.3157      272.96141     -3786.835       2683.2073    
     98400  -1815.9493      8.1403523     -1807.809       257.04696     -3605.1554      2683.2073    
     98600  -1815.9185      9.2025749     -1806.716       290.58864     -5308.8976      2683.2073    
     98800  -1814.9633      8.5988487     -1806.3644      271.52485     -2555.1756      2683.2073    
     99000  -1815.037       8.4087045     -1806.6283      265.52069     -953.17595      2683.2073    
     99200  -1815.8968      8.9714948     -1806.9253      283.29186     -8976.8666      2683.2073    
     99400  -1815.9417      8.1471555     -1807.7945      257.26179      451.36061      2683.2073    
     99600  -1816.4375      8.0456877     -1808.3918      254.05775     -2015.7318      2683.2073    
     99800  -1816.4129      8.5246891     -1807.8882      269.18312     -2256.9023      2683.2073    
    100000  -1815.8469      8.2132182     -1807.6337      259.34784     -5080.9499      2683.2073    
    100200  -1816.4092      9.2168001     -1807.1924      291.03783     -3125.6242      2683.2073    
    100400  -1815.6791      9.2872446     -1806.3919      293.26225      757.81938      2683.2073    
    100600  -1815.7518      9.3681838     -1806.3837      295.81806     -7285.7265      2683.2073    
    100800  -1816.1586      8.6953937     -1807.4632      274.57344     -8467.9609      2683.2073    
    101000  -1816.3282      8.4106492     -1807.9175      265.5821      -4948.5686      2683.2073    
    101200  -1816.4593      8.7346971     -1807.7246      275.81452     -5688.5982      2683.2073    
    101400  -1816.3076      9.2445767     -1807.063       291.91493     -10409.108      2683.2073    
    101600  -1815.6588      9.1928346     -1806.466       290.28107     -8290.279       2683.2073    
    101800  -1815.9777      9.8319459     -1806.1458      310.46222     -926.61097      2683.2073    
    102000  -1815.4797      8.8190603     -1806.6606      278.47845     -3389.4673      2683.2073    
    102200  -1816.2433      9.1215422     -1807.1218      288.02988     -5669.257       2683.2073    
    102400  -1815.4688      7.9434913     -1807.5253      250.83071     -3800.0248      2683.2073    
    102600  -1815.338       8.6444288     -1806.6936      272.96413     -4896.0774      2683.2073    
    102800  -1815.6966      9.2167472     -1806.4798      291.03616     -6922.1518      2683.2073    
    103000  -1816.2776      9.5625463     -1806.7151      301.95542     -5419.1511      2683.2073    
    103200  -1815.755       8.4954483     -1807.2596      268.25979     -4249.8293      2683.2073    
    103400  -1815.8049      8.4989395     -1807.306       268.37003     -8846.2439      2683.2073    
    103600  -1815.7938      8.9302643     -1806.8636      281.98992     -6896.2337      2683.2073    
    103800  -1815.3027      9.1431437     -1806.1596      288.71199     -2424.758       2683.2073    
    104000  -1815.2614      8.8554546     -1806.406       279.62767     -3073.0978      2683.2073    
    104200  -1815.8882      9.2277571     -1806.6604      291.38382     -6264.92        2683.2073    
    104400  -1815.853       9.1032428     -1806.7497      287.45205     -4608.8877      2683.2073    
    104600  -1815.3089      9.448325      -1805.8606      298.34867     -2418.8682      2683.2073    
    104800  -1814.1865      9.0049202     -1805.1815      284.34732     -6051.7586      2683.2073    
    105000  -1814.2834      9.3558523     -1804.9276      295.42867     -9082.7011      2683.2073    
    105200  -1815.4649      9.9500302     -1805.5148      314.19095     -4317.2318      2683.2073    
    105400  -1815.602       8.4525323     -1807.1495      266.90464     -11053.414      2683.2073    
    105600  -1815.2468      8.0203402     -1807.2265      253.25735     -6012.2542      2683.2073    
    105800  -1815.185       8.8189653     -1806.3661      278.47545     -6946.2444      2683.2073    
    106000  -1815.6405      9.9972608     -1805.6433      315.68235     -4657.4279      2683.2073    
    106200  -1816.0719      9.4629947     -1806.6089      298.81189     -3057.6658      2683.2073    
    106400  -1815.3563      8.2236804     -1807.1326      259.67821     -7715.2274      2683.2073    
    106600  -1815.9925      9.2570804     -1806.7354      292.30976     -7249.7736      2683.2073    
    106800  -1814.9991      8.6078915     -1806.3912      271.81039     -3564.7873      2683.2073    
    107000  -1815.0866      9.0968541     -1805.9897      287.25031     -3787.9407      2683.2073    
    107200  -1815.35        8.9947106     -1806.3553      284.02494     -7340.517       2683.2073    
    107400  -1816.1348      9.1345698     -1807.0002      288.44125     -10570.545      2683.2073    
    107600  -1815.2747      8.3909471     -1806.8838      264.95997     -2585.146       2683.2073    
    107800  -1815.7679      9.0266786     -1806.7412      285.03439     -2573.7872      2683.2073    
    108000  -1815.193       8.7888123     -1806.4042      277.52331     -4614.2049      2683.2073    
    108200  -1814.9909      8.7248107     -1806.2661      275.50234      347.59452      2683.2073    
    108400  -1815.7556      9.2140518     -1806.5415      290.95105     -7923.9398      2683.2073    
    108600  -1815.786       8.476512      -1807.3095      267.66184     -9558.8339      2683.2073    
    108800  -1815.7799      8.575254      -1807.2046      270.7798      -5030.4532      2683.2073    
    109000  -1816.3578      9.1963867     -1807.1615      290.39324     -5396.0008      2683.2073    
    109200  -1816.2846      9.1559844     -1807.1286      289.11746     -3657.9804      2683.2073    
    109400  -1816.0859      8.9502618     -1807.1357      282.62138     -5159.1903      2683.2073    
    109600  -1815.454       8.2239009     -1807.2301      259.68517     -8723.4857      2683.2073    
    109800  -1815.3368      9.30362       -1806.0332      293.77933     -3081.08        2683.2073    
    110000  -1815.0626      10.100878     -1804.9617      318.95426      153.59637      2683.2073    
    110200  -1815.4487      9.9163628     -1805.5324      313.12784     -5131.1203      2683.2073    
    110400  -1815.3117      8.5416175     -1806.7701      269.71767     -6927.0912      2683.2073    
    110600  -1814.7561      7.8559087     -1806.9002      248.06512     -8084.4051      2683.2073    
    110800  -1815.4921      8.8975496     -1806.5945      280.95689     -10323.245      2683.2073    
    111000  -1815.2446      8.8596384     -1806.385       279.75978     -4642.2962      2683.2073    
    111200  -1815.0455      8.7684484     -1806.2771      276.88028     -4513.415       2683.2073    
    111400  -1815.0925      8.1809535     -1806.9116      258.32902     -8233.2589      2683.2073    
    111600  -1816.2175      9.4078685     -1806.8097      297.07118     -5195.7043      2683.2073    
    111800  -1815.3624      9.0988775     -1806.2635      287.3142      -4516.8254      2683.2073    
    112000  -1815.6082      9.9144978     -1805.6937      313.06895     -3184.9859      2683.2073    
    112200  -1815.2322      8.7046117     -1806.5276      274.86452     -1327.8017      2683.2073    
    112400  -1815.8149      8.0503437     -1807.7646      254.20477     -5779.3318      2683.2073    
    112600  -1816.0349      8.3553726     -1807.6795      263.83663     -2106.7267      2683.2073    
    112800  -1815.9034      8.9787914     -1806.9246      283.52226     -2082.3246      2683.2073    
    113000  -1815.4587      9.6791398     -1805.7795      305.63708     -6700.4787      2683.2073    
    113200  -1814.4445      9.3811676     -1805.0633      296.22804     -5307.7006      2683.2073    
    113400  -1814.2441      9.0544669     -1805.1896      285.91185     -7033.5494      2683.2073    
    113600  -1814.4505      9.5389743     -1804.9115      301.21109     -5136.253       2683.2073    
    113800  -1814.1175      9.3721635     -1804.7454      295.94372     -3061.6389      2683.2073    
    114000  -1814.9193      9.0899368     -1805.8294      287.03188     -1403.2197      2683.2073    
    114200  -1815.5388      8.6384093     -1806.9004      272.77405     -2669.8515      2683.2073    
    114400  -1815.6146      8.7139578     -1806.9006      275.15964     -6093.3226      2683.2073    
    114600  -1814.5233      7.9667313     -1806.5566      251.56455     -5378.0606      2683.2073    
    114800  -1814.81        8.7636732     -1806.0463      276.72949     -3789.0591      2683.2073    
    115000  -1815.0517      9.2091733     -1805.8426      290.797       -951.02754      2683.2073    
    115200  -1814.9073      8.8243663     -1806.0829      278.64599     -8913.7669      2683.2073    
    115400  -1815.2403      8.6689879     -1806.5713      273.73963     -3384.8013      2683.2073    
    115600  -1816.6502      9.2939735     -1807.3562      293.47473     -3050.1036      2683.2073    
    115800  -1815.7069      7.9689649     -1807.7379      251.63508     -1332.0901      2683.2073    
    116000  -1815.943       8.3813901     -1807.5616      264.65819     -4051.3615      2683.2073    
    116200  -1815.5123      8.3774857     -1807.1348      264.5349      -4124.8355      2683.2073    
    116400  -1816.1007      9.3721377     -1806.7286      295.94291     -2372.3492      2683.2073    
    116600  -1814.7958      8.2119524     -1806.5839      259.30787     -534.83609      2683.2073    
    116800  -1815.1211      8.2481464     -1806.873       260.45076     -5555.7734      2683.2073    
    117000  -1815.236       8.8562331     -1806.3797      279.65225     -5054.235       2683.2073    
    117200  -1815.3949      9.5638949     -1805.831       301.998       -611.41829      2683.2073    
    117400  -1815.1154      9.2658        -1805.8496      292.5851      -2504.9098      2683.2073    
    117600  -1815.7484      8.8989258     -1806.8495      281.00035     -6441.0118      2683.2073    
    117800  -1815.7516      8.1738789     -1807.5777      258.10563     -14052.378      2683.2073    
    118000  -1815.9896      8.4581004     -1807.5315      267.08046     -4923.1466      2683.2073    
    118200  -1815.1966      8.5223233     -1806.6743      269.10842     -2474.8211      2683.2073    
    118400  -1814.823       8.8963588     -1805.9266      280.91929     -5701.4936      2683.2073    
    118600  -1814.4837      8.8190703     -1805.6646      278.47876     -1925.1987      2683.2073    
    118800  -1813.9334      8.4323203     -1805.5011      266.2664       430.17234      2683.2073    
    119000  -1814.7234      9.2419875     -1805.4815      291.83317     -5956.8134      2683.2073    
    119200  -1814.8018      9.2403046     -1805.5615      291.78003     -4529.627       2683.2073    
    119400  -1814.8224      8.9038863     -1805.9185      281.15699     -5166.9534      2683.2073    
    119600  -1814.869       8.7085071     -1806.1605      274.98752     -3913.8851      2683.2073    
    119800  -1815.6098      9.2539223     -1806.3558      292.21004     -1464.2086      2683.2073    
    120000  -1815.3149      8.6115898     -1806.7033      271.92718     -5039.1963      2683.2073    
    120200  -1815.1123      8.2070354     -1806.9053      259.15261     -4489.2256      2683.2073    
    120400  -1814.737       8.5774961     -1806.1595      270.8506      -5221.6797      2683.2073    
    120600  -1815.4374      9.4759746     -1805.9615      299.22175     -4972.0905      2683.2073    
    120800  -1815.379       9.2182061     -1806.1608      291.08223      589.27011      2683.2073    
    121000  -1814.4467      8.2859177     -1806.1608      261.64346      661.20736      2683.2073    
    121200  -1814.9211      9.1331201     -1805.788       288.39548     -9591.7881      2683.2073    
    121400  -1815.3073      9.8490743     -1805.4582      311.00308     -8450.6697      2683.2073    
    121600  -1814.8055      9.0715914     -1805.7339      286.45259     -2425.5323      2683.2073    
    121800  -1814.9322      8.9278013     -1806.0044      281.91215      843.73179      2683.2073    
    122000  -1814.7742      9.0371439     -1805.7371      285.36485     -9426.5029      2683.2073    
    122200  -1814.6762      8.5146571     -1806.1615      268.86634     -5447.6258      2683.2073    
    122400  -1816.2166      9.3931359     -1806.8234      296.60597     -4307.9292      2683.2073    
    122600  -1815.9363      8.7258398     -1807.2104      275.53484     -4437.194       2683.2073    
    122800  -1815.1838      8.6572363     -1806.5266      273.36855     -5190.2663      2683.2073    
    123000  -1814.9003      9.16497       -1805.7353      289.4012      -172.06642      2683.2073    
    123200  -1814.729       9.4839995     -1805.245       299.47515     -1493.7304      2683.2073    
    123400  -1814.125       9.1133704     -1805.0116      287.77184     -1340.0595      2683.2073    
    123600  -1815.2798      8.9287888     -1806.351       281.94333     -7866.8869      2683.2073    
    123800  -1817.0294      9.6521843     -1807.3773      304.78591     -6677.068       2683.2073    
    124000  -1816.5828      8.2658782     -1808.3169      261.01068      996.93055      2683.2073    
    124200  -1816.6473      8.1617392     -1808.4856      257.72229     -1364.5846      2683.2073    
    124400  -1816.3486      8.6461969     -1807.7024      273.01996     -7426.523       2683.2073    
    124600  -1815.1654      9.101353      -1806.0641      287.39237     -4684.779       2683.2073    
    124800  -1815.6377      9.8309221     -1805.8068      310.42989     -4898.4665      2683.2073    
    125000  -1815.7576      9.2803606     -1806.4772      293.04487     -4288.766       2683.2073    
    125200  -1815.4895      8.313455      -1807.176       262.51301     -3514.3597      2683.2073    
    125400  -1816.2217      8.7726342     -1807.449       277.01245     -6024.6625      2683.2073    
    125600  -1815.7848      9.176584      -1806.6082      289.76793     -4768.8841      2683.2073    
    125800  -1815.6858      8.8234275     -1806.8624      278.61635     -6602.451       2683.2073    
    126000  -1815.4138      8.2188171     -1807.195       259.52464     -2173.0026      2683.2073    
    126200  -1815.6267      8.6401336     -1806.9865      272.8285      -5819.4295      2683.2073    
    126400  -1816.5376      9.2171316     -1807.3205      291.0483      -6263.556       2683.2073    
    126600  -1816.1755      8.6749998     -1807.5005      273.92946     -11372.502      2683.2073    
    126800  -1815.9051      8.860307      -1807.0447      279.78089     -12967.849      2683.2073    
    127000  -1815.8924      9.2721481     -1806.6202      292.78555     -182.13107      2683.2073    
    127200  -1815.7336      9.0896212     -1806.644       287.02192     -2417.657       2683.2073    
    127400  -1816.6851      9.3822196     -1807.3029      296.26126     -9092.4076      2683.2073    
    127600  -1816.1125      8.6306723     -1807.4819      272.52974     -5862.9029      2683.2073    
    127800  -1816.1102      8.6975254     -1807.4127      274.64075     -5169.7172      2683.2073    
    128000  -1816.6088      8.9600262     -1807.6488      282.92971     -1883.7871      2683.2073    
    128200  -1815.914       8.2533106     -1807.6607      260.61383     -2386.6058      2683.2073    
    128400  -1816.0251      9.1857771     -1806.8393      290.05822      616.5427       2683.2073    
    128600  -1815.5174      8.640765      -1806.8766      272.84844     -5821.1899      2683.2073    
    128800  -1816.0899      8.3879385     -1807.702       264.86496     -8675.1635      2683.2073    
    129000  -1816.1939      8.5017509     -1807.6921      268.4588      -4573.2486      2683.2073    
    129200  -1816.9808      9.6509773     -1807.3298      304.74779     -2682.8506      2683.2073    
    129400  -1817.0955      9.6628426     -1807.4327      305.12246     -2566.8262      2683.2073    
    129600  -1817.2847      9.5210413     -1807.7637      300.64482     -3222.3514      2683.2073    
    129800  -1816.1448      8.1722219     -1807.9725      258.0533      -4186.5141      2683.2073    
    130000  -1816.9169      8.856385      -1808.0605      279.65704      4021.4045      2683.2073    
    130200  -1816.8466      9.0547004     -1807.7919      285.91923     -2164.5172      2683.2073    
    130400  -1816.4516      9.0103143     -1807.4413      284.51765     -8507.8272      2683.2073    
    130600  -1816.5851      9.5351958     -1807.0499      301.09178     -6023.0892      2683.2073    
    130800  -1816.1115      8.789333      -1807.3221      277.53975     -3013.4992      2683.2073    
    131000  -1816.1924      7.941783      -1808.2506      250.77676      889.06296      2683.2073    
    131200  -1817.0243      8.9157149     -1808.1086      281.5305      -2228.3786      2683.2073    
    131400  -1816.6989      8.9088718     -1807.79        281.31442     -7026.2748      2683.2073    
    131600  -1816.8568      9.2657174     -1807.5911      292.58249     -3756.1786      2683.2073    
    131800  -1816.3707      8.7577517     -1807.613       276.54251     -4396.2762      2683.2073    
    132000  -1816.2032      8.5449022     -1807.6583      269.82139     -496.95485      2683.2073    
    132200  -1816.6407      8.8848951     -1807.7558      280.55731     -9930.0749      2683.2073    
    132400  -1817.0095      8.5556221     -1808.4539      270.15989     -3572.251       2683.2073    
    132600  -1816.8345      8.7135402     -1808.1209      275.14645      2415.1455      2683.2073    
    132800  -1816.6889      8.6802561     -1808.0087      274.09544     -5885.1818      2683.2073    
    133000  -1817.0298      9.0434947     -1807.9863      285.56539     -6332.314       2683.2073    
    133200  -1816.4579      8.8648171     -1807.5931      279.92331     -1804.9972      2683.2073    
    133400  -1816.681       9.2924767     -1807.3885      293.42746     -3001.0283      2683.2073    
    133600  -1816.2756      8.5723956     -1807.7032      270.68955     -6443.8843      2683.2073    
    133800  -1817.4086      8.8625193     -1808.5461      279.85075     -2519.7595      2683.2073    
    134000  -1817.3663      8.6797196     -1808.6866      274.0785      -1650.915       2683.2073    
    134200  -1816.301       8.6671713     -1807.6338      273.68227     -8108.5753      2683.2073    
    134400  -1816.2557      9.7498692     -1806.5058      307.87049     -7698.3466      2683.2073    
    134600  -1815.6393      8.8197731     -1806.8195      278.50096     -5294.6449      2683.2073    
    134800  -1816.2246      8.6209349     -1807.6036      272.22227     -6330.7876      2683.2073    
    135000  -1816.4187      8.0923476     -1808.3264      255.53112     -6078.9837      2683.2073    
    135200  -1817.1956      8.9971626     -1808.1985      284.10236     -6983.018       2683.2073    
    135400  -1817.1866      9.2816225     -1807.905       293.08472     -7583.0123      2683.2073    
    135600  -1816.8668      8.9055374     -1807.9613      281.20913     -5497.1231      2683.2073    
    135800  -1816.5809      8.9894669     -1807.5915      283.85936     -5811.4219      2683.2073    
    136000  -1815.8824      9.2574447     -1806.625       292.32126     -6494.6101      2683.2073    
    136200  -1814.872       9.2024345     -1805.6696      290.58421     -6257.0039      2683.2073    
    136400  -1815.1699      9.4490385     -1805.7209      298.3712       383.37606      2683.2073    
    136600  -1815.779       9.08132       -1806.6977      286.75979     -4364.004       2683.2073    
    136800  -1815.5042      7.9626026     -1807.5416      251.43418     -8400.6976      2683.2073    
    137000  -1816.5093      9.4817549     -1807.0275      299.40428     -9679.9566      2683.2073    
    137200  -1815.3242      8.6018716     -1806.7224      271.62031      347.21195      2683.2073    
    137400  -1816.0747      9.124219      -1806.9505      288.11441     -6751.4082      2683.2073    
    137600  -1816.3406      8.5269029     -1807.8137      269.25303     -5697.5673      2683.2073    
    137800  -1816.9095      8.3325754     -1808.5769      263.11677     -7255.4976      2683.2073    
    138000  -1816.8254      8.6057398     -1808.2196      271.74245     -8321.6521      2683.2073    
    138200  -1816.1055      9.5520399     -1806.5535      301.62366     -5067.1085      2683.2073    
    138400  -1815.5493      9.2467831     -1806.3025      291.9846      -3803.4451      2683.2073    
    138600  -1816.4016      9.2449959     -1807.1566      291.92817      174.81949      2683.2073    
    138800  -1816.7021      8.526015      -1808.1761      269.22499     -401.6504       2683.2073    
    139000  -1816.5856      8.2226177     -1808.363       259.64465     -8642.0065      2683.2073    
    139200  -1816.6884      8.6994335     -1807.989       274.70101     -8721.9662      2683.2073    
    139400  -1816.2022      8.988621      -1807.2135      283.83265      2930.1835      2683.2073    
    139600  -1815.5347      9.0327835     -1806.5019      285.22716      1634.1526      2683.2073    
    139800  -1815.563       9.7371311     -1805.8258      307.46826     -7955.323       2683.2073    
    140000  -1815.456       9.0740995     -1806.3819      286.53179     -11924.234      2683.2073    
    140200  -1816.3947      9.7347587     -1806.6599      307.39335     -8600.3294      2683.2073    
    140400  -1815.6807      9.4356103     -1806.2451      297.94717      318.53074      2683.2073    
    140600  -1815.1897      8.8077502     -1806.3819      278.12131     -207.30407      2683.2073    
    140800  -1816.1141      8.6856433     -1807.4284      274.26556     -4650.4011      2683.2073    
    141000  -1816.1594      8.9328554     -1807.2265      282.07174     -6537.1156      2683.2073    
    141200  -1815.3936      8.5289194     -1806.8647      269.3167      -9278.5176      2683.2073    
    141400  -1815.7755      9.0905077     -1806.685       287.04991     -7307.4645      2683.2073    
    141600  -1815.2125      8.986457      -1806.226       283.76431     -9564.9488      2683.2073    
    141800  -1815.6651      9.5739707     -1806.0911      302.31617     -766.10078      2683.2073    
    142000  -1817.0337      9.495292      -1807.5384      299.83174     -2690.1876      2683.2073    
    142200  -1816.481       8.6198163     -1807.8612      272.18694     -6208.12        2683.2073    
    142400  -1815.9296      8.3610038     -1807.5685      264.01445     -8831.8331      2683.2073    
    142600  -1816.9093      10.118176     -1806.7912      319.50047      991.11821      2683.2073    
    142800  -1815.6998      9.1098508     -1806.59        287.6607      -2443.9672      2683.2073    
    143000  -1816.0613      8.2847929     -1807.7765      261.60795     -4882.8244      2683.2073    
    143200  -1817.2086      8.6561204     -1808.5524      273.33331     -12275.318      2683.2073    
    143400  -1816.4479      8.4166182     -1808.0313      265.77058     -3074.4454      2683.2073    
    143600  -1816.2848      9.3964774     -1806.8883      296.71148     -2028.0028      2683.2073    
    143800  -1816.2762      9.3709913     -1806.9052      295.90671     -2418.1063      2683.2073    
    144000  -1816.6357      9.2163588     -1807.4193      291.0239      -5075.084       2683.2073    
    144200  -1816.7322      8.6480406     -1808.0841      273.07818     -3907.7185      2683.2073    
    144400  -1816.94        8.2357371     -1808.7043      260.05892     -2723.2843      2683.2073    
    144600  -1816.93        7.7773097     -1809.1527      245.58321     -10042.912      2683.2073    
    144800  -1816.7077      8.5536361     -1808.1541      270.09718     -2059.9316      2683.2073    
    145000  -1816.127       8.7993134     -1807.3276      277.8549      -4877.5414      2683.2073    
    145200  -1815.6472      8.342323      -1807.3049      263.42457     -9016.6809      2683.2073    
    145400  -1815.265       8.2991246     -1806.9658      262.0605      -2881.4356      2683.2073    
    145600  -1815.393       8.6294965     -1806.7635      272.49261     -8813.8983      2683.2073    
    145800  -1815.8949      8.7510377     -1807.1439      276.33051     -8834.5065      2683.2073    
    146000  -1815.2408      8.1515136     -1807.0893      257.3994      -5676.5832      2683.2073    
[...]
    964200  -1815.1097      8.4698105     -1806.6399      267.45023      351.23567      2683.2073    
    964400  -1816.5485      8.6071677     -1807.9414      271.78754     -4983.7314      2683.2073    
    964600  -1816.4677      7.9346879     -1808.533       250.55272     -10210.844      2683.2073    
    964800  -1816.2364      8.4402371     -1807.7962      266.51639     -8485.187       2683.2073    
    965000  -1816.4315      9.5880722     -1806.8434      302.76145     -985.86391      2683.2073    
    965200  -1815.7237      8.9815994     -1806.7421      283.61093     -2281.4923      2683.2073    
    965400  -1815.3021      8.5663994     -1806.7357      270.5002      -4324.3927      2683.2073    
    965600  -1815.5247      8.8735551     -1806.6512      280.19922     -7328.4819      2683.2073    
    965800  -1815.3595      8.978913      -1806.3806      283.5261      -8566.317       2683.2073    
    966000  -1815.7615      9.5474783     -1806.214       301.47962     -7537.639       2683.2073    
    966200  -1815.5935      8.2563568     -1807.3371      260.71002     -9437.3249      2683.2073    
    966400  -1816.1805      8.4570751     -1807.7234      267.04808     -7081.4473      2683.2073    
    966600  -1815.4331      8.5221476     -1806.911       269.10287     -2608.1529      2683.2073    
    966800  -1815.3675      9.279093      -1806.0884      293.00485     -4866.2937      2683.2073    
    967000  -1814.493       9.2206763     -1805.2723      291.16023     -3720.6948      2683.2073    
    967200  -1814.176       8.7559745     -1805.4201      276.48639     -9575.0711      2683.2073    
    967400  -1814.9636      9.0183746     -1805.9452      284.77217     -4010.3813      2683.2073    
    967600  -1815.7314      8.9214081     -1806.81        281.71027      3029.9962      2683.2073    
    967800  -1815.8371      8.573943      -1807.2631      270.73841     -6785.2386      2683.2073    
    968000  -1815.4861      8.2454201     -1807.2407      260.36468     -4376.8182      2683.2073    
    968200  -1815.6249      9.3170734     -1806.3078      294.20415     -1652.709       2683.2073    
    968400  -1814.6929      9.0398137     -1805.6531      285.44915     -1028.9354      2683.2073    
    968600  -1815.7113      9.5884845     -1806.1228      302.77447     -2221.984       2683.2073    
    968800  -1815.029       8.2117748     -1806.8172      259.30226     -6730.185       2683.2073    
    969000  -1815.4975      8.3055347     -1807.1919      262.26291     -2911.3492      2683.2073    
    969200  -1815.0422      8.0600081     -1806.9822      254.50995     -3674.0497      2683.2073    
    969400  -1815.3677      9.30032       -1806.0674      293.67513     -1414.0357      2683.2073    
    969600  -1815.0896      9.7194314     -1805.3701      306.90936     -279.23482      2683.2073    
    969800  -1814.9291      9.1837854     -1805.7453      289.99533     -4726.6381      2683.2073    
    970000  -1815.4282      8.7240438     -1806.7042      275.47812     -8786.547       2683.2073    
    970200  -1815.9288      8.0803197     -1807.8485      255.15132     -8576.018       2683.2073    
    970400  -1816.1386      8.6358459     -1807.5027      272.69311     -2402.0352      2683.2073    
    970600  -1815.424       8.7671592     -1806.6569      276.83957     -5417.1595      2683.2073    
    970800  -1815.0519      8.8054296     -1806.2465      278.04803     -5217.2079      2683.2073    
    971000  -1815.651       9.3558684     -1806.2952      295.42917      4805.8541      2683.2073    
    971200  -1815.4825      8.8491442     -1806.6333      279.4284      -2892.1642      2683.2073    
    971400  -1814.9565      8.6624594     -1806.294       273.53348     -2708.4812      2683.2073    
    971600  -1814.2678      9.0495723     -1805.2182      285.7573      -5437.0927      2683.2073    
    971800  -1813.4373      8.1247483     -1805.3126      256.55424     -2916.2024      2683.2073    
    972000  -1814.7875      8.8652449     -1805.9222      279.93681     -2250.496       2683.2073    
    972200  -1814.8358      8.6039867     -1806.2318      271.68709     -9405.609       2683.2073    
    972400  -1815.0234      8.8063652     -1806.217       278.07758     -3306.039       2683.2073    
    972600  -1815.0158      9.1457646     -1805.87        288.79475      3124.6956      2683.2073    
    972800  -1815.4041      9.0714248     -1806.3327      286.44733     -118.91373      2683.2073    
    973000  -1815.5139      8.5865072     -1806.9274      271.13515     -6079.6268      2683.2073    
    973200  -1815.6518      8.7134891     -1806.9383      275.14484     -6873.0001      2683.2073    
    973400  -1815.5593      9.1684111     -1806.3909      289.50986     -600.95491      2683.2073    
    973600  -1815.0888      8.7540787     -1806.3347      276.42653     -6006.8025      2683.2073    
    973800  -1815.9286      8.5993985     -1807.3292      271.54221     -2404.8763      2683.2073    
    974000  -1815.38        7.8479118     -1807.5321      247.8126      -840.79672      2683.2073    
    974200  -1815.5562      8.8277937     -1806.7284      278.75422     -3348.8934      2683.2073    
    974400  -1816.1147      9.8614519     -1806.2532      311.39393     -2850.4754      2683.2073    
    974600  -1815.4956      8.7573815     -1806.7382      276.53082     -3193.4027      2683.2073    
    974800  -1815.7455      8.3952442     -1807.3503      265.09566      510.91634      2683.2073    
    975000  -1815.9576      8.5904607     -1807.3671      271.25998     -3554.1917      2683.2073    
    975200  -1816.1602      9.19637       -1806.9639      290.39271     -7050.0733      2683.2073    
    975400  -1816.312       10.329515     -1805.9825      326.17391     -1746.4769      2683.2073    
    975600  -1815.7507      9.6409787     -1806.1098      304.43207      116.82272      2683.2073    
    975800  -1816.2621      8.6069442     -1807.6551      271.78048     -2878.7999      2683.2073    
    976000  -1816.4745      8.4784017     -1807.9961      267.72151     -6939.4565      2683.2073    
    976200  -1815.461       8.4146381     -1807.0464      265.70806     -6119.2259      2683.2073    
    976400  -1815.3929      9.5090015     -1805.8839      300.26464      956.10147      2683.2073    
    976600  -1814.7703      8.6758868     -1806.0944      273.95748     -970.10545      2683.2073    
    976800  -1815.0302      8.5319775     -1806.4983      269.41327      8.5872089      2683.2073    
    977000  -1815.878       9.0984122     -1806.7796      287.29951     -1867.2932      2683.2073    
    977200  -1815.9732      8.9804517     -1806.9928      283.57468     -5078.3253      2683.2073    
    977400  -1815.9524      8.8443988     -1807.108       279.27856     -4702.5468      2683.2073    
    977600  -1815.5339      8.240423      -1807.2935      260.20689     -1342.0046      2683.2073    
    977800  -1815.7052      8.407265      -1807.298       265.47523     -11153.382      2683.2073    
    978000  -1815.7238      8.7084086     -1807.0154      274.98441     -3006.2011      2683.2073    
    978200  -1814.8364      8.6255674     -1806.2109      272.36854     -5546.3412      2683.2073    
    978400  -1815.0212      9.5474009     -1805.4738      301.47717      3190.2752      2683.2073    
    978600  -1815.7362      9.5081253     -1806.228       300.23697     -4359.9064      2683.2073    
    978800  -1816.0739      9.0770618     -1806.9969      286.62533     -8407.6888      2683.2073    
    979000  -1816.5276      8.9800426     -1807.5476      283.56177     -6504.0628      2683.2073    
    979200  -1815.787       8.5064376     -1807.2806      268.6068      -2782.7038      2683.2073    
    979400  -1815.3115      8.2569671     -1807.0545      260.7293      -7068.5594      2683.2073    
    979600  -1815.4972      8.7849793     -1806.7122      277.40227     -5186.2562      2683.2073    
    979800  -1815.4809      9.5354777     -1805.9454      301.10068     -6592.0613      2683.2073    
    980000  -1815.3883      9.4135592     -1805.9747      297.25087     -11038.769      2683.2073    
    980200  -1815.9323      8.784033      -1807.1482      277.37239     -3074.4391      2683.2073    
    980400  -1815.6129      8.5382157     -1807.0747      269.61025     -2462.9539      2683.2073    
    980600  -1815.5191      9.0172924     -1806.5018      284.738       -5697.4804      2683.2073    
    980800  -1815.1674      9.2737033     -1805.8936      292.83466     -4332.8891      2683.2073    
    981000  -1815.2861      9.3005283     -1805.9856      293.68171     -1814.231       2683.2073    
    981200  -1815.8426      8.8085329     -1807.034       278.14602     -786.94127      2683.2073    
    981400  -1815.875       8.2030442     -1807.6719      259.02658     -231.25545      2683.2073    
    981600  -1814.9821      7.6629803     -1807.3191      241.97304     -4418.0369      2683.2073    
    981800  -1814.4938      8.6707232     -1805.823       273.79442     -6923.7165      2683.2073    
    982000  -1815.1899      9.5950894     -1805.5948      302.98303     -1489.4622      2683.2073    
    982200  -1815.4362      9.4467991     -1805.9894      298.30048     -7511.9967      2683.2073    
    982400  -1815.352       8.6050156     -1806.747       271.71958     -4333.5881      2683.2073    
    982600  -1815.228       8.0859761     -1807.1421      255.32993     -181.55425      2683.2073    
    982800  -1815.5187      8.1886765     -1807.3301      258.57289     -8574.8644      2683.2073    
    983000  -1815.8187      8.6360469     -1807.1826      272.69945     -1530.9785      2683.2073    
    983200  -1815.1998      8.8059772     -1806.3938      278.06533     -4019.8016      2683.2073    
    983400  -1814.8825      8.757905      -1806.1246      276.54735     -4599.9179      2683.2073    
    983600  -1815.1016      9.0834982     -1806.0181      286.82857     -2583.2487      2683.2073    
    983800  -1815.0457      8.990736      -1806.055       283.89943     -1111.2945      2683.2073    
    984000  -1815.6073      8.9902926     -1806.617       283.88543     -204.85334      2683.2073    
    984200  -1815.3938      8.6085617     -1806.7853      271.83156     -8152.3744      2683.2073    
    984400  -1815.2989      8.5871914     -1806.7117      271.15675     -4151.135       2683.2073    
    984600  -1814.7863      8.3442905     -1806.442       263.4867      -5236.2834      2683.2073    
    984800  -1814.93        9.4632709     -1805.4668      298.82061     -6403.7473      2683.2073    
    985000  -1815.422       9.6593109     -1805.7627      305.01094     -6026.678       2683.2073    
    985200  -1815.07        8.7243589     -1806.3457      275.48807     -5748.5336      2683.2073    
    985400  -1815.2549      8.8585028     -1806.3964      279.72392     -8686.4629      2683.2073    
    985600  -1815.3888      8.8533059     -1806.5355      279.55982     -5291.1941      2683.2073    
    985800  -1815.7526      8.8912657     -1806.8614      280.75847     -2723.8549      2683.2073    
    986000  -1815.8704      8.7938736     -1807.0765      277.68313     -8932.704       2683.2073    
    986200  -1815.225       8.5510404     -1806.6739      270.01522     -10728.939      2683.2073    
    986400  -1815.4579      8.6036296     -1806.8543      271.67582      368.7167       2683.2073    
    986600  -1815.9966      8.4928003     -1807.5038      268.17617     -2161.7456      2683.2073    
    986800  -1816.4487      8.7376892     -1807.711       275.909       -12773.282      2683.2073    
    987000  -1816.0889      9.0219015     -1807.067       284.88354     -6219.7283      2683.2073    
    987200  -1814.7178      8.0522077     -1806.6656      254.26363     -7215.1521      2683.2073    
    987400  -1815.9661      9.2866626     -1806.6795      293.24387     -3408.4183      2683.2073    
    987600  -1815.7547      8.86937       -1806.8854      280.06707     -1757.4637      2683.2073    
    987800  -1816.0744      9.8384717     -1806.2359      310.66828     -10130.084      2683.2073    
    988000  -1814.6782      9.8938072     -1804.7844      312.41561     -1832.2319      2683.2073    
    988200  -1812.9158      8.8484009     -1804.0674      279.40493      5038.4688      2683.2073    
    988400  -1814.7859      9.0364587     -1805.7494      285.34321     -404.73345      2683.2073    
    988600  -1815.2455      8.6694643     -1806.5761      273.75467     -7393.6413      2683.2073    
    988800  -1815.2168      8.1533125     -1807.0635      257.45621     -6280.475       2683.2073    
    989000  -1815.9906      8.7117075     -1807.2789      275.08858     -1916.5766      2683.2073    
    989200  -1816.7353      9.5276949     -1807.2076      300.85492     -3887.3012      2683.2073    
    989400  -1815.8256      8.6540885     -1807.1715      273.26915     -6365.0485      2683.2073    
    989600  -1816.3378      9.1806338     -1807.1571      289.89581     -151.67572      2683.2073    
    989800  -1815.9319      8.5956458     -1807.3363      271.42371      2243.1355      2683.2073    
    990000  -1816.2109      9.5850382     -1806.6259      302.66564     -8865.9905      2683.2073    
    990200  -1815.8945      9.0749399     -1806.8196      286.55833     -7771.9062      2683.2073    
    990400  -1815.5561      8.3699257     -1807.1862      264.29618     -340.68236      2683.2073    
    990600  -1815.4127      7.9784278     -1807.4343      251.93389     -3644.0134      2683.2073    
    990800  -1816.8622      9.4602165     -1807.402       298.72416     -6600.1376      2683.2073    
    991000  -1816.0378      9.0394363     -1806.9983      285.43724     -2278.8157      2683.2073    
    991200  -1815.7818      9.3442752     -1806.4375      295.0631       1267.4693      2683.2073    
    991400  -1815.9475      9.1404403     -1806.8071      288.62663     -494.79519      2683.2073    
    991600  -1816.6966      9.0644431     -1807.6322      286.22687     -4534.8796      2683.2073    
    991800  -1816.6298      8.7911617     -1807.8386      277.5975      -4791.879       2683.2073    
    992000  -1816.8587      9.1182958     -1807.7404      287.92737     -2708.0438      2683.2073    
    992200  -1816.9567      8.8491737     -1808.1075      279.42934     -5683.516       2683.2073    
    992400  -1816.8012      8.3388988     -1808.4623      263.31644     -8119.573       2683.2073    
    992600  -1816.7015      8.3688819     -1808.3326      264.26322     -9227.2388      2683.2073    
    992800  -1817.1098      8.927637      -1808.1822      281.90696     -6598.4265      2683.2073    
    993000  -1816.6869      8.485641      -1808.2013      267.95011     -7612.209       2683.2073    
    993200  -1816.8343      9.0215282     -1807.8128      284.87175     -7028.1433      2683.2073    
    993400  -1816.4446      9.1140185     -1807.3306      287.79231     -7562.1702      2683.2073    
    993600  -1816.6347      9.7262255     -1806.9085      307.1239      -5903.1963      2683.2073    
    993800  -1815.9547      9.1783802     -1806.7763      289.82465      864.60058      2683.2073    
    994000  -1816.0476      9.1669412     -1806.8806      289.46344     -4037.4081      2683.2073    
    994200  -1816.5817      8.8142341     -1807.7675      278.32605     -4353.5814      2683.2073    
    994400  -1816.9395      8.882932      -1808.0566      280.49532     -4650.0694      2683.2073    
    994600  -1816.2298      8.2729046     -1807.9569      261.23255     -7080.4867      2683.2073    
    994800  -1815.7506      8.3530713     -1807.3975      263.76397     -8245.9026      2683.2073    
    995000  -1815.7987      8.6945212     -1807.1041      274.54589     -2371.5094      2683.2073    
    995200  -1815.83        8.6240347     -1807.206       272.32015     -3811.1326      2683.2073    
    995400  -1816.114       8.4221906     -1807.6918      265.94654     -6321.3725      2683.2073    
    995600  -1817.0213      9.1629299     -1807.8584      289.33678     -6376.8896      2683.2073    
    995800  -1816.3781      8.7698993     -1807.6082      276.92609     -7431.8527      2683.2073    
    996000  -1816.5947      9.226525      -1807.3681      291.34491     -3589.1418      2683.2073    
    996200  -1816.9773      9.2173727     -1807.7599      291.05591     -6156.1947      2683.2073    
    996400  -1817.7588      9.4096922     -1808.3491      297.12876     -2098.6278      2683.2073    
    996600  -1816.5511      8.0981918     -1808.4529      255.71567     -6156.4613      2683.2073    
    996800  -1816.8555      8.9908614     -1807.8646      283.90339     -5178.8405      2683.2073    
    997000  -1816.1435      8.5612227     -1807.5823      270.33674     -5343.7587      2683.2073    
    997200  -1816.6333      9.8591322     -1806.7741      311.32068     -2232.4823      2683.2073    
    997400  -1815.3278      9.4027376     -1805.9251      296.90916     -4146.7875      2683.2073    
    997600  -1815.2553      8.7507936     -1806.5046      276.3228      -2523.4402      2683.2073    
    997800  -1816.8887      9.4185835     -1807.4701      297.40952     -6389.6326      2683.2073    
    998000  -1816.3145      8.3509119     -1807.9636      263.69578     -6438.4104      2683.2073    
    998200  -1815.6901      8.4805418     -1807.2096      267.78909     -6667.7215      2683.2073    
    998400  -1815.6484      9.2868735     -1806.3615      293.25053     -2509.6739      2683.2073    
    998600  -1815.2485      8.8796807     -1806.3688      280.39265      2321.3209      2683.2073    
    998800  -1816.6296      8.5335936     -1808.096       269.4643      -1877.7445      2683.2073    
    999000  -1816.8472      8.1590566     -1808.6882      257.63759     -4945.0943      2683.2073    
    999200  -1816.0987      8.1926354     -1807.906       258.6979       533.23828      2683.2073    
    999400  -1816.7033      9.6612012     -1807.0421      305.07063      1321.2312      2683.2073    
    999600  -1815.6206      8.7582689     -1806.8623      276.55885     -7089.525       2683.2073    
    999800  -1815.7765      8.7374        -1807.0391      275.89987     -2449.6552      2683.2073    
   1000000  -1816.9389      8.9140875     -1808.0248      281.47911      1187.5009      2683.2073    
Loop time of 34937.2 on 1 procs for 1000000 steps with 246 atoms

Performance: 1.237 ns/day, 19.410 hours/ns, 28.623 timesteps/s, 7.041 katom-step/s
99.1% CPU use with 1 MPI tasks x 1 OpenMP threads

MPI task timing breakdown:
Section |  min time  |  avg time  |  max time  |%varavg| %total
---------------------------------------------------------------
Pair    | 34019      | 34019      | 34019      |   0.0 | 97.37
Neigh   | 14.178     | 14.178     | 14.178     |   0.0 |  0.04
Comm    | 55.03      | 55.03      | 55.03      |   0.0 |  0.16
Output  | 3.6993     | 3.6993     | 3.6993     |   0.0 |  0.01
Modify  | 802.6      | 802.6      | 802.6      |   0.0 |  2.30
Other   |            | 42.95      |            |       |  0.12

Nlocal:            246 ave         246 max         246 min
Histogram: 1 0 0 0 0 0 0 0 0 0
Nghost:           6981 ave        6981 max        6981 min
Histogram: 1 0 0 0 0 0 0 0 0 0
Neighs:              0 ave           0 max           0 min
Histogram: 1 0 0 0 0 0 0 0 0 0
FullNghs:       258096 ave      258096 max      258096 min
Histogram: 1 0 0 0 0 0 0 0 0 0

Total # of neighbors = 258096
Ave neighs/atom = 1049.1707
Neighbor list builds = 11348
Dangerous builds = 0

write_restart	Cu_H2O_restart_1.restart
System init for write_restart ...
Generated 0 of 3 mixed pair_coeff terms from geometric mixing rule
WARNING: Pair style restartinfo set but has no restart support (src/pair.cpp:754)
write_data Cu_H2O_restart_1.data
System init for write_data ...
Generated 0 of 3 mixed pair_coeff terms from geometric mixing rule
undump viewNVT
Total wall time: 9:42:20
