246
Lattice="10.140377178 0.0 0.0 0.0 8.78182424 0.0 0.0 0.0 30.131127158" Properties=species:S:1:pos:R:3:initial_charges:R:1:forces:R:3 NELECT0=1456.0 NELECT=1456.0 stress="0.014281983461083343 0.0013673835777893782 0.0018654060739618555 0.0013673835777893782 0.013017410021615517 0.0020123998553855317 0.0018654060739618555 0.0020123998553855317 0.005150243670313829" free_energy=-1811.95299129 energy=-1811.84717305 pbc="T T T"
Cu       6.74835000       1.00203000       9.82349000       0.02238000       0.13503100      -0.00462800       0.51302300
Cu       9.33790000       1.12770000       9.99055000       0.01383800      -0.01084100      -0.13108300      -0.43485000
Cu       1.74366000       1.12469000       9.83551000      -0.05510700      -0.10838400      -0.02740300       0.66398500
Cu       4.15532000       1.12506000      10.00510000      -0.04105600       0.59757600      -0.74542300      -0.11376000
Cu       8.04390000       3.29881000       9.73854000       0.10218000       0.29669400      -0.16745700       0.09745700
Cu       0.60090000       3.33741000      10.07380000      -0.06291800      -0.26644600      -0.30281600      -0.50656700
Cu       3.07066000       3.26435000       9.97519000      -0.05724300      -0.33753900       0.20834400       0.06776500
Cu       5.52658000       3.08354000       9.86827000      -0.06424100       0.30207800       0.84213200       0.11448300
Cu       9.42831000       5.45085000       9.91561000      -0.07686500       0.17572600       0.28678000      -0.06376100
Cu       1.77365000       5.48020000       9.97823000      -0.06117400      -0.02620100      -0.13507800       0.02981600
Cu       4.32715000       5.37471000       9.69389000      -0.00605300       0.24985100      -0.07674200       0.80866100
Cu       6.93312000       5.49626000       9.84524000      -0.00885100      -0.47821400      -0.00419600       0.05283900
Cu       0.50951000       7.75544000      10.08620000      -0.04002200       0.22956700      -0.52820900      -0.63174300
Cu       3.07261000       7.52871000       9.74544000       0.15376000      -0.02802800       0.70432700      -0.20176200
Cu       5.54573000       7.58426000      10.05610000      -0.07754400       0.18964300       0.06294300      -0.81220200
Cu       8.26635000       7.60048000       9.71564000       0.10866500      -0.71128700       0.35583500       0.74623400
Cu       5.57910000       1.82658000      12.04060000       0.02756100       0.28125300      -0.16629600      -0.54081100
Cu       8.02922000       1.89069000      11.88770000       0.01904400       0.37889600      -0.29906800       0.04719100
Cu       0.41379000       1.76958000      11.91710000       0.02419900       0.64849300       0.25413600       0.49793500
Cu       3.10216000       1.71216000      12.08950000       0.01020800      -0.46638000       0.78949800      -0.64477200
Cu       6.91364000       4.05720000      11.85530000       0.02031100      -0.09607200      -0.24093300       0.20777500
Cu       9.37930000       4.11179000      11.92010000       0.02457400      -0.04865500      -0.84666300       0.31773500
Cu       1.82282000       4.07189000      12.08180000       0.01027900       0.34053700      -0.38260200      -0.51781500
Cu       4.41387000       3.98961000      11.93630000       0.01984700      -0.36030000       0.43089900       0.05165900
Cu       8.17956000       6.29165000      11.88610000       0.03424700      -0.23341100      -0.16663900       0.12914900
Cu       0.47542000       6.16843000      12.05050000       0.02087300       0.73523000       0.36460500      -0.47187400
Cu       3.05277000       6.33818000      11.88310000       0.02942400       0.52551300      -0.82572900       0.16948600
Cu       5.74528000       6.16835000      11.96340000       0.01823800      -0.82616500      -0.11731700       0.09644700
Cu       9.43431000       8.34734000      12.05870000       0.01262200      -0.42652200       0.65332300      -0.41182000
Cu       1.82986000       8.40516000      11.93500000       0.02090800       0.18525300       0.21939300       0.12544300
Cu       4.40328000       8.35684000      11.98460000       0.00966100      -0.48684600       0.24267900       0.00615800
Cu       6.82313000       8.39490000      11.93060000       0.02943000       0.87235400       0.33355200       0.05268200
Cu       5.70396000       0.36591000      14.03060000       0.00899300      -0.02578000      -0.07381600       0.16826500
Cu       8.23906000       0.36591000      14.03060000       0.02981700      -0.16588200       0.14640700      -0.06000300
Cu       0.63377000       0.36591000      14.03060000       0.00558100       0.04279700       0.05090300       0.00675300
Cu       3.16887000       0.36591000      14.03060000      -0.01976600      -0.05396100      -0.34212300       0.39995700
Cu       6.97151000       2.56137000      14.03060000      -0.00123100      -0.02450100       0.09372600      -0.03670400
Cu       9.50660000       2.56137000      14.03060000       0.00204800      -0.14693900       0.02964700      -0.15983400
Cu       1.90132000       2.56137000      14.03060000      -0.00040400      -0.26452200      -0.11930900       0.14259100
Cu       4.43642000       2.56137000      14.03060000       0.00903900      -0.09707700       0.11279500       0.33042700
Cu       8.23906000       4.75682000      14.03060000       0.00589300      -0.12469500       0.03713000      -0.16566900
Cu       0.63377000       4.75682000      14.03060000      -0.00465600      -0.23850800      -0.08592700       0.43974200
Cu       3.16887000       4.75682000      14.03060000       0.02368600       0.11137000       0.15972000      -0.08634800
Cu       5.70396000       4.75682000      14.03060000      -0.02368100      -0.02118000      -0.09471200      -0.09408600
Cu       9.50660000       6.95228000      14.03060000      -0.02011500      -0.20402000      -0.12411300       0.47106900
Cu       1.90132000       6.95228000      14.03060000       0.00542300      -0.01734300      -0.02851000      -0.01255000
Cu       4.43642000       6.95228000      14.03060000       0.02672700      -0.03053100      -0.16636700      -0.06841500
Cu       6.97151000       6.95228000      14.03060000       0.01314500       0.00709300      -0.00112100      -0.02318800
Cu       6.97151000       1.09773000      16.10050000       0.00262100       0.11333100       0.12441900       0.01670200
Cu       9.50660000       1.09773000      16.10050000       0.00759600       0.04378200       0.11624800       0.18635300
Cu       1.90132000       1.09773000      16.10050000      -0.00175000       0.04113100       0.05038400      -0.05183300
Cu       4.43642000       1.09773000      16.10050000       0.00362300       0.01567200      -0.07377000       0.19934700
Cu       8.23906000       3.29318000      16.10050000      -0.00418100      -0.02784200      -0.03129000      -0.12144900
Cu       0.63377000       3.29318000      16.10050000       0.00395200      -0.02120300      -0.07072200      -0.12822500
Cu       3.16887000       3.29318000      16.10050000      -0.01970900       0.06933500       0.11449100       0.02819000
Cu       5.70396000       3.29318000      16.10050000       0.03107000       0.01274900       0.01887800       0.18963200
Cu       9.50660000       5.48864000      16.10050000      -0.00178800      -0.05137000      -0.11155000      -0.12507300
Cu       1.90132000       5.48864000      16.10050000      -0.02272100       0.14909200       0.16412400      -0.22182500
Cu       4.43642000       5.48864000      16.10050000       0.02673100      -0.11557800      -0.00118200       0.17965800
Cu       6.97151000       5.48864000      16.10050000      -0.00104900       0.11650600      -0.11267700      -0.16187200
Cu       0.63377000       7.68410000      16.10050000       0.00522500      -0.10196100       0.10555500      -0.03604600
Cu       3.16887000       7.68410000      16.10050000      -0.00583300       0.01710700       0.00617600       0.01091700
Cu       5.70396000       7.68410000      16.10050000       0.00376100      -0.06007300       0.04574500      -0.01187900
Cu       8.23906000       7.68410000      16.10050000       0.00780700       0.02773700       0.04488100       0.05624200
Cu       5.74703000       1.76458000      18.18830000       0.01885700      -0.33149300       0.34178600      -0.30840100
Cu       8.25451000       1.90734000      18.25120000       0.03461600       0.25009400      -0.78626300      -0.38635700
Cu       0.77706000       1.84558000      18.21460000       0.02847600      -0.91365600       0.26864700      -0.22313700
Cu       3.18600000       1.89462000      18.17140000       0.02120300       0.44960700      -0.38877300      -0.11965100
Cu       7.04650000       3.97597000      18.20110000       0.03599100      -0.41672600       0.14655400      -0.78337400
Cu       9.50826000       3.92911000      18.16780000       0.00768600       0.37849900       0.51250800      -0.16349100
Cu       1.85467000       4.11073000      18.10780000       0.02089300       0.67789100      -0.44905600       0.41683700
Cu       4.48364000       4.00367000      18.24520000       0.01347100      -0.14216500       0.21899400      -0.29855600
Cu       8.27346000       6.18457000      18.15630000       0.02226800       0.03277500       0.22601600      -0.30564800
Cu       0.61225000       6.19431000      18.09650000       0.03241300      -0.02943500       0.51611000       0.21659500
Cu       3.13584000       6.30609000      18.23770000       0.03079200       0.12757400      -0.72826900      -0.12661300
Cu       5.78828000       6.15968000      18.11110000       0.00993100      -0.35193300       0.35297200       0.32908000
Cu       9.45057000       8.51660000      18.21090000       0.01946600       0.12212700      -0.44812600      -0.34379200
Cu       1.85420000       8.45952000      18.13350000       0.02626600       0.26965600      -0.34688400       0.27589800
Cu       4.42214000       8.28800000      18.22410000       0.01628200       0.28708700       0.83850300      -0.37328800
Cu       6.95291000       8.47074000      18.14200000       0.01113400       0.31342900      -0.54568600       0.25903200
Cu       5.76108000       0.36579000      20.22040000      -0.04836900       0.24902600      -0.30073300       0.08847700
Cu       8.33654000       0.44701000      20.30840000      -0.03396400      -0.54329600      -0.42753800      -0.30773500
Cu       0.60127000       0.39790000      20.16230000      -0.05809400       0.57132900      -0.08847100       0.31600700
Cu       3.23212000       0.32790000      20.20910000      -0.03352600      -0.21785100       0.10430500      -0.23091100
Cu       7.01562000       2.58828000      20.21840000      -0.03359400      -0.12053500      -0.33423300       0.32253400
Cu       9.51482000       2.62565000      20.27770000       0.16793000       0.51046100      -0.14680200       0.48871000
Cu       2.01641000       2.54692000      20.19740000      -0.04374100      -0.01584300       0.23313000       0.07657100
Cu       4.57889000       2.49181000      20.21840000      -0.03184100      -0.50549400       0.40968000       0.13823600
Cu       8.28667000       4.71737000      20.15870000      -0.06346300       0.42360900       0.53454500       0.14609900
Cu       0.69587000       4.82225000      20.12060000      -0.01036800      -0.03984400      -0.51197200       0.25427000
Cu       3.24994000       4.77720000      20.26900000      -0.00378200       0.03131500      -0.21111400      -0.36589900
Cu       5.92968000       4.78742000      20.13890000      -0.08460800      -1.01151600       0.02982000       0.42341600
Cu       9.55731000       6.94680000      20.16320000      -0.05369000      -0.05803500       0.11118600       0.11033900
Cu       1.83208000       6.92484000      20.22190000       0.06099000       0.66396300       0.49807200       0.23084800
Cu       4.55603000       6.94934000      20.24030000       0.00369100       0.09163000      -0.25878300      -0.09231700
Cu       7.18236000       6.94017000      20.20060000      -0.06630700      -0.74627700       0.35384600      -0.01969400
O        9.05592000       0.39324000      25.49950000      -1.36150000      -0.35683900       2.29534600      -0.88878300
O        1.91471000       2.28394000       3.61869000      -1.28092000      -0.54641800       0.50308000      -0.90016800
O        8.09918000       8.00514000       3.00861000      -1.34489100       1.48500300      -0.61183500      -0.12667000
O        4.66165000       3.13946000       0.72697000      -1.29579200       1.68196400      -1.25757500       0.85778500
O        8.20657000       5.54675000      23.44570000      -1.30150700      -0.03908100       0.14036200       0.58507900
O        0.41709000       0.01300000       3.82475000      -1.32120800      -0.79989800       0.65605800       0.64548100
O        7.71169000       0.81646000       0.64790000      -1.30621400      -0.14160700       0.04173300      -0.32609000
O        9.32507000       1.81829000       5.86153000      -1.30488300       1.14603400      -0.01273900       0.74146700
O        2.13216000       0.99093000      28.85580000      -1.33063800       0.09441500       0.58235800       1.52843300
O        2.20065000       8.17452000      26.69780000      -1.30101500      -0.96496600      -0.44463200      -0.59541600
O        4.28177000       1.00432000       2.81530000      -1.27992900      -0.90687600      -0.64548500      -1.66771100
O        0.44705000       4.13197000      25.70090000      -1.34866600       0.98844200       0.03130900      -1.12954700
O        0.53210000       7.19601000       6.35053000      -1.34912400       0.34004500       2.27606400       0.55194400
O        3.78174000       2.80795000      27.76430000      -1.32808400      -1.15147500      -0.27043300       0.24117800
O        0.91139000       1.78002000      24.53610000      -1.34410200       0.21873000       2.40686100       0.57794700
O        8.24308000       0.02636000       7.72198000      -1.33431700      -0.62683700       2.01219500      -0.63170200
O        4.78241000       3.26324000       6.55622000      -1.23188400       2.07716100       1.29273900       0.38228800
O        4.82106000       7.29297000       1.26909000      -1.28662000       0.75474000      -0.52181300      -0.75162000
O        6.17984000       6.17680000      25.04000000      -1.32688400       0.19472000       0.61930000       0.18980700
O        3.18661000       7.71182000       7.56394000      -1.32967700       0.54183800      -0.26103400       0.75748500
O        5.44677000       5.52732000       4.06624000      -1.32168900      -0.57474400       0.78447800       1.38961200
O        1.60901000       8.43377000       1.20797000      -1.31265800       0.04972100       0.60927800      -0.20924700
O        5.68960000       8.03851000       4.43860000      -1.35678900       1.10335400       0.72207100       1.76522800
O        8.30006000       2.78053000      26.61450000      -1.34855400      -0.28726600       0.60940000       0.08986600
O        2.19971000       5.51037000      27.43870000      -1.32988800       0.41660300      -2.22124500       0.39850400
O        9.43781000       2.32412000      29.11130000      -1.31559700      -0.30701000       0.70652300       0.33076000
O        6.87620000       4.34419000       1.83259000      -1.35969800      -1.31390700      -1.58129700       1.47840200
O        5.96379000       0.69290000      28.45470000      -1.26865600      -0.97704300       2.01981100       0.90262200
O        2.32936000       7.13971000      22.80380000      -1.30571000       0.41708800       0.15036600      -0.26633100
O        4.88440000       0.03640000      25.75180000      -1.26551300       0.88296200      -0.91094800      -1.14027300
O        2.73966000       4.88183000       4.05959000      -1.36519700       1.22867200      -1.75600300       1.59361200
O        5.39314000       0.64228000       6.56264000      -1.33433600      -0.77293200      -0.20212200      -0.52690300
O        9.61782000       7.78773000      29.85240000      -1.34412400       0.14648900       0.51434900       0.83207900
O        2.00164000       1.66263000       6.71964000      -1.28063200      -0.10705100      -0.15926500      -0.10636200
O        9.62155000       3.10902000      22.40420000      -1.36825200       1.20144500      -1.80727500      -0.54930900
O        9.18005000       6.78986000      27.17450000      -1.25524800       0.17074300       0.60970200       1.08275300
O        6.72853000       5.93730000       6.60426000      -1.29901100       0.02112500      -1.34880400      -1.88987600
O        0.12152000       4.95365000       0.28659000      -1.28358700      -0.32040800       0.57804900      -1.95227000
O        4.53071000       2.92839000      24.97260000      -1.32029100       0.48668200       1.96527900       0.90196300
O        8.62144000       3.90353000       7.37812000      -1.23218100       0.26630600       2.84441700       0.65265300
O        2.64705000       5.44300000       0.21428000      -1.33430800      -0.04008200      -0.51879800       2.15783200
O        6.91238000       6.05172000      29.69580000      -1.32870000       1.23877900       1.18614000       1.64022500
O        5.84657000       4.46361000      27.49950000      -1.35244900       0.21326700       0.24770700      -0.12048200
O        0.37686000       6.68062000      24.51490000      -1.29866500      -0.10270500      -2.13455000      -1.13658300
O        3.10113000       1.14652000      23.39540000      -1.34549500       0.64484700      -0.66083000      -1.33810800
O        1.46225000       4.46421000       6.57271000      -1.33209800      -0.68611500      -1.34918600      -1.57151600
O        7.61761000       8.61546000      23.32200000      -1.27580100      -0.23071000       0.03238800      -0.62416600
O        4.64656000       5.46666000      23.12490000      -1.32886300       0.12453700      -0.10069300      -0.19018700
O        8.42273000       3.86623000       4.13434000      -1.32473900       0.13396600       1.28989800       0.21181800
O       10.05520000       5.86557000       2.93943000      -1.36555700       0.63155700      -0.42672400      -0.40859200
H        8.67708000       0.26399000      24.61070000       0.68092700      -0.42599200       0.02909200      -0.21890300
H        9.14885000       8.31045000      25.79840000       0.68552000       0.53503500      -2.74944100       1.28272300
H        2.27913000       1.98114000       4.43992000       0.63907200       0.45936400      -0.16372000       0.81352800
H        2.00787000       3.26541000       3.64105000       0.64992900       0.30750400      -0.38846400       0.20852500
H        0.26072000       1.15352000      24.85720000       0.67212800      -0.71397700      -0.65878300       0.58262500
H        7.39401000       8.15948000       3.63001000       0.67995400      -1.24633600       0.06326200       0.35305100
H        3.96273000       3.60624000       0.32981000       0.66620900      -1.60257700       1.28449900      -0.54832900
H        4.34792000       2.74280000       1.55364000       0.63461500      -0.06122700      -0.12438300      -0.21095400
H        8.21383000       5.65161000      22.47810000       0.58628300       0.09793900       0.35235700      -0.18547800
H        8.81415000       6.21533000      23.86670000       0.65882500       0.29145000      -0.47788600      -0.66834300
H        0.09666000       1.51178000       6.07279000       0.63313100      -0.25350200      -0.25284300      -0.45225600
H        0.49972000       0.98079000       4.05059000       0.65165900      -0.11237800      -1.18007700      -0.52527100
H        0.45775000       7.61457000       5.47499000       0.67474500       0.18006700      -0.07829300      -0.11518100
H        8.38994000       1.41522000       0.27898000       0.66062400      -0.14483000       0.01832300       0.00053800
H        4.21035000       0.31947000       2.10103000       0.63329000       0.97310500       0.14825700       0.52959500
H        9.40691000       2.68578000       6.32343000       0.67466200      -0.97689700      -0.01611300      -0.24029300
H        1.98811000       0.22339000      28.30400000       0.69928200       0.11310200      -0.44764100      -0.90208400
H        2.97148000       8.26145000      26.12660000       0.66486700       0.67629700       0.35952800      -0.01421000
H        1.44781000       8.08576000      26.07210000       0.65379400       0.41498400      -0.18209300       0.44012900
H        2.28581000       7.52485000       7.28593000       0.67374500      -0.67469200       0.14700300      -0.55943600
H        3.37391000       1.34205000       2.70369000       0.64427200      -0.02242800       0.42393100       0.98023100
H        5.19133000       8.56705000       3.85730000       0.68844200      -1.40457600       0.76534400      -2.31351600
H        9.73534000       3.99516000      26.08680000       0.68526800      -1.23466000      -0.33740700       0.70168900
H        1.02372000       4.59785000      26.32270000       0.69199800       0.14947800       0.35654700       0.56715800
H        9.57009000       8.59123000       3.82808000       0.66188700       1.05669400       0.40286400      -0.55335200
H        0.32854000       6.29388000       6.26191000       0.66058400      -0.41802800      -1.97607600      -0.47265900
H        3.07690000       2.19999000      28.19320000       0.67573700       1.06600100       0.48596900      -0.73231400
H        3.73894000       2.70352000      26.79100000       0.64547200       0.13991800      -0.19511100       0.21635400
H        6.96620000       0.95106000       0.02377000       0.65946400       0.36292900      -0.42748100       0.24716400
H        0.78489000       2.62360000      25.15000000       0.66429600       0.38373500      -1.40548100      -1.30591200
H        8.75492000       8.05173000       7.49161000       0.66457600       0.93269600      -1.18759400      -0.79116000
H        4.48962000       3.18949000       7.47150000       0.59104200      -0.54109700      -0.21186000       0.43958800
H        5.59940000       3.83964000       6.72662000       0.60779400      -1.43786700      -0.81280900      -0.72096700
H        4.03791000       6.85380000       0.92762000       0.63664500      -0.51904800      -0.17971200       0.11128100
H        5.50688000       6.83976000       0.70917000       0.63824600      -0.32565200       0.82781600       0.63830400
H        6.13382000       5.54052000      25.75770000       0.66489200      -0.33976600      -0.31126500       0.56768200
H        6.88082000       5.85160000      24.43650000       0.66874900       0.26605100       0.01673800      -0.02808800
H        8.49570000       0.73303000       7.02270000       0.66144400      -0.08484000      -0.73563800       0.84976100
H        3.38526000       8.63277000       7.34641000       0.69113800      -0.04621000       0.14852300      -0.35733900
H        5.54548000       6.54060000       4.16150000       0.67859900      -0.25757100      -1.00733300      -0.27549300
H        6.01266000       5.23504000       3.35774000       0.64653500       0.55494800      -0.20216700      -0.86849000
H        2.46348000       0.62854000      29.70610000       0.65667900      -0.36780700       0.31037800      -0.49324500
H        1.37328000       8.66579000       2.12871000       0.68885300      -0.26747300      -0.39426800       0.14635700
H        1.62153000       7.47962000       1.10958000       0.64491700       0.38630600      -0.47550500       0.43834300
H        5.60067000       8.72591000       5.18936000       0.67265300       0.51664100      -1.43713000       0.34224700
H        8.16745000       1.86674000      26.35680000       0.68247400      -0.14566200      -0.47701100      -0.84952400
H        2.90670000       4.80270000      27.38740000       0.63552000      -0.70899100       1.23543300      -0.02261900
H        0.17522000       1.94848000      29.18660000       0.67317900       0.67867500      -0.37609000      -0.13337800
H        2.49841000       6.36469000      27.11820000       0.69732900       0.28683700       0.54211800      -0.27373200
H        8.78477000       2.59699000      27.42690000       0.65904700       0.20185000       0.31416200       0.86416300
H        9.53802000       3.22868000      29.47070000       0.66415600       0.00012600      -0.17664500       0.02299500
H        6.01550000       3.93270000       1.53883000       0.66844200       0.79201600       0.14862300       0.12784900
H        7.02922000       4.93239000       1.12614000       0.67925100       0.57323100       1.43446100      -1.57929800
H        5.86684000       0.70388000      27.50170000       0.63815700      -0.05276900      -0.34971000      -0.63902500
H        2.74777000       7.95024000      23.14750000       0.65187500      -0.31416900       0.37683700      -0.08733700
H        5.51891000       8.11660000      25.41550000       0.64631600      -0.92652600       0.78233800       0.60216600
H        5.44081000       1.53354000      28.66450000       0.61970500       0.80026400      -1.58440400      -0.20417100
H        4.77243000       0.59223000      24.95770000       0.63161300       0.06481900      -0.15838200       0.47879900
H        2.19596000       5.44478000       3.54991000       0.68461700      -0.31607200       1.43377100      -1.01009100
H        3.74297000       5.02419000       4.06447000       0.69596200      -1.04619500       0.59118600      -0.53955400
H        5.92189000       0.27908000       7.25217000       0.64242900       0.91999000      -0.68844200       0.87241000
H        0.20261000       8.23329000       0.28147000       0.65526600      -0.77456300      -0.55733500      -0.82929600
H        5.55419000       1.58527000       6.59328000       0.69293600      -0.31930000       1.02678600      -0.12182700
H        8.79362000       8.20840000       0.08027000       0.65589800       0.35008100       0.08141400      -0.37341500
H        2.30716000       1.27098000      23.94040000       0.70269800      -0.82145100       0.42396000       0.42704400
H        1.59984000       1.53830000       7.60586000       0.58808200       0.25232300       0.29826700      -0.23799000
H        2.18574000       2.62253000       6.65035000       0.64629100      -0.32508700      -0.17034300       0.35970000
H        9.13417000       3.83037000      22.78040000       0.69456000      -0.25690100       0.54102400       1.01106700
H        9.38118000       7.25484000      28.03960000       0.65780300      -0.11339100      -0.46795700      -0.95591500
H        6.31150000       5.61273000       5.71883000       0.65311500       0.70428400       0.69638600       1.18553300
H        8.22437000       6.86869000      27.10100000       0.59605700      -0.17848100      -0.04295700      -0.00572100
H        0.02342000       2.55691000      23.05110000       0.67973000      -0.75650000       0.99698900      -0.17184900
H        6.00237000       6.32152000       7.08036000       0.62712000      -0.61276900       0.34221400       0.49015100
H        0.03692000       5.78797000      29.87930000       0.63138700       0.08256800      -1.00757000       0.36212900
H        9.94083000       5.28410000       1.11743000       0.65879900      -0.32385400       0.05847900       1.64031500
H        3.09093000       6.54003000      22.77880000       0.65235900       0.18470100      -0.60289300      -0.05009800
H        8.03259000       4.73286000       7.14230000       0.65254200       0.85454000      -1.73169800       0.26234200
H        1.80495000       4.98640000       0.49134000       0.67579100       0.51054500       0.59431200       0.00544300
H        9.44582000       4.36034000       7.76816000       0.56710600      -1.33816100      -0.93562800      -0.74639800
H        4.49069000       3.86077000      24.62500000       0.63278000      -0.01663100      -1.32421200       0.13610400
H        2.52904000       5.38938000      29.42190000       0.62960700      -0.01719700       0.29590700      -2.26894100
H        7.78090000       6.48505000      29.53310000       0.63934400      -1.04963700      -0.63839100      -0.15966000
H        6.56914000       5.64620000      28.91640000       0.69543800      -0.24984500      -0.75362500      -1.46611200
H        7.91162000       8.43675000       2.17171000       0.67278500      -0.46337700       0.60006800      -0.18613600
H        6.54722000       3.94472000      27.06310000       0.65878800      -0.15086700      -0.34458100       0.40855700
H        0.92613000       6.63120000      23.64830000       0.65231000      -0.67171500       0.32576200       1.75038400
H        5.14099000       3.82882000      27.78280000       0.68798500       0.46713000       0.20715000      -0.31691100
H        0.24620000       5.69135000      24.78040000       0.62935600       0.68104900       1.96303200      -0.22998000
H        2.76087000       1.22699000      22.46350000       0.58783000       0.53753900       0.12351100       0.84040700
H        4.15258000       2.38148000      24.29740000       0.66788900      -0.71150300      -0.42970100      -1.15007100
H        1.74697000       5.05467000       7.23021000       0.62700200       0.87427900       1.19448100       1.54108100
H        1.93794000       4.71394000       5.75324000       0.68058100       0.11662700       0.06662400      -0.12611700
H        7.42378000       0.45505000      22.57520000       0.60814900       0.13708000      -0.68998500       0.51171300
H        7.67399000       7.72111000      22.92370000       0.61501600      -0.12125400       0.80920500       0.01588700
H        5.11493000       5.94847000      23.87410000       0.67457100      -0.08690500      -0.66530200      -0.61959500
H        5.33215000       5.02588000      22.56320000       0.60040000      -0.64591400       0.57578200       0.59873100