 vasp.6.4.3 19Mar24 (build Sep  4 2024 12:23:58) complex                         
 executed on              LinuxNV date 2025.10.01  16:30:44
 running    4 mpi-ranks, with    1 threads/rank, on    1 nodes
 distrk:  each k-point on    2 cores,    2 groups
 distr:  one band on NCORE=   1 cores,    2 groups
 OpenACC runtime initialized ...    4 GPUs detected


--------------------------------------------------------------------------------------------------------


 INCAR:
   ENCUT = 800.000000
   SIGMA = 0.100000
   EDIFF = 1.00e-07
   ALGO = fast
   METAGGA = R2SCAN
   PREC = Accurate
   IBRION = -1
   ICHARG = 2
   ISMEAR = 0
   ISTART = 0
   KPAR = 2
   NELM = 160
   NPAR = 2
   NCORE = 1
   LAECHG = .TRUE.
   LASPH = .TRUE.
   LVHAR = .TRUE.
   LMIXTAU = .TRUE.
   LREAL = Auto

 POTCAR:    PAW_PBE Cu 22Jun2005                  
 POTCAR:    PAW_PBE O_h 06Feb2004                 
 POTCAR:    PAW_PBE H_h 06Feb2004                 
 POTCAR:    PAW_PBE Cu 22Jun2005                  
   VRHFIN =Cu: d10 p1                                                                               
   LEXCH  = PE                                                                                      
   EATOM  =  1390.9808 eV,  102.2342 Ry                                                             
                                                                                                    
   TITEL  = PAW_PBE Cu 22Jun2005                                                                    
   LULTRA =        F    use ultrasoft PP ?                                                          
   IUNSCR =        1    unscreen: 0-lin 1-nonlin 2-no                                               
   RPACOR =    2.000    partial core radius                                                         
   POMASS =   63.546; ZVAL   =   11.000    mass and valenz                                          
   RCORE  =    2.300    outmost cutoff radius                                                       
   RWIGS  =    2.200; RWIGS  =    1.164    wigner-seitz radius (au A)                               
   ENMAX  =  295.446; ENMIN  =  221.585 eV                                                          
   ICORE  =        3    local potential                                                             
   LCOR   =        T    correct aug charges                                                         
   LPAW   =        T    paw PP                                                                      
   EAUG   =  586.980                                                                                
   DEXC   =    0.000                                                                                
   RMAX   =    2.344    core radius for proj-oper                                                   
   RAUG   =    1.300    factor for augmentation sphere                                              
   RDEP   =    2.302    radius for radial grids                                                     
   RDEPT  =    1.771    core radius for aug-charge                                                  
                                                                                                    
   Atomic configuration                                                                             
    9 entries                                                                                       
     n  l   j            E        occ.                                                              
     1  0  0.50     -8850.2468   2.0000                                                             
     2  0  0.50     -1062.3498   2.0000                                                             
     2  1  1.50      -916.8226   6.0000                                                             
     3  0  0.50      -114.6929   2.0000                                                             
     3  1  1.50       -72.1325   6.0000                                                             
     3  2  2.50        -5.0394  10.0000                                                             
     4  0  0.50        -4.6097   1.0000                                                             
     4  1  0.50        -4.0817   0.0000                                                             
     4  3  2.50        -1.3606   0.0000                                                             
   Description                                                                                      
     l       E           TYP  RCUT    TYP  RCUT                                                     
     2     -5.0393973     23  2.200                                                                 
     2     10.8846608     23  2.200                                                                 
     0     -4.6097109     23  2.200                                                                 
     0      8.2520465     23  2.200                                                                 
     1     -2.7211652     23  2.200                                                                 
     1     21.7055443     23  2.200                                                                 
     3      2.7211652     23  2.300                                                                 
  local pseudopotential read in
  partial core-charges read in
  partial kinetic energy density read in
  atomic valenz-charges read in
  non local Contribution for L=            2  read in
    real space projection operators read in
  non local Contribution for L=            2  read in
    real space projection operators read in
  non local Contribution for L=            0  read in
    real space projection operators read in
  non local Contribution for L=            0  read in
    real space projection operators read in
  non local Contribution for L=            1  read in
    real space projection operators read in
  non local Contribution for L=            1  read in
    real space projection operators read in
    PAW grid and wavefunctions read in
 
   number of l-projection  operators is LMAX  =            6
   number of lm-projection operators is LMMAX =           18
 
 POTCAR:    PAW_PBE O_h 06Feb2004                 
   VRHFIN =O: s2p4                                                                                  
   LEXCH  = PE                                                                                      
   EATOM  =   432.3788 eV,   31.7789 Ry                                                             
                                                                                                    
   TITEL  = PAW_PBE O_h 06Feb2004                                                                   
   LULTRA =        F    use ultrasoft PP ?                                                          
   IUNSCR =        1    unscreen: 0-lin 1-nonlin 2-no                                               
   RPACOR =    0.800    partial core radius                                                         
   POMASS =   16.000; ZVAL   =    6.000    mass and valenz                                          
   RCORE  =    1.100    outmost cutoff radius                                                       
   RWIGS  =    1.400; RWIGS  =    0.741    wigner-seitz radius (au A)                               
   ENMAX  =  700.000; ENMIN  =  500.000 eV                                                          
   ICORE  =        2    local potential                                                             
   LCOR   =        T    correct aug charges                                                         
   LPAW   =        T    paw PP                                                                      
   EAUG   =  888.804                                                                                
   DEXC   =    0.000                                                                                
   RMAX   =    1.128    core radius for proj-oper                                                   
   RAUG   =    1.300    factor for augmentation sphere                                              
   RDEP   =    1.125    radius for radial grids                                                     
   RDEPT  =    1.088    core radius for aug-charge                                                  
                                                                                                    
   Atomic configuration                                                                             
    4 entries                                                                                       
     n  l   j            E        occ.                                                              
     1  0  0.50      -514.6923   2.0000                                                             
     2  0  0.50       -23.9615   2.0000                                                             
     2  1  0.50        -9.0305   4.0000                                                             
     3  2  1.50        -9.5241   0.0000                                                             
   Description                                                                                      
     l       E           TYP  RCUT    TYP  RCUT                                                     
     0    -23.9615319     23  1.100                                                                 
     0    -25.3221145     23  1.100                                                                 
     1     -9.0304911     23  1.100                                                                 
     1     -5.4802209     23  1.100                                                                 
     2     -9.5240782      7  1.100                                                                 
  local pseudopotential read in
  partial core-charges read in
  partial kinetic energy density read in
  atomic valenz-charges read in
  non local Contribution for L=            0  read in
    real space projection operators read in
  non local Contribution for L=            0  read in
    real space projection operators read in
  non local Contribution for L=            1  read in
    real space projection operators read in
  non local Contribution for L=            1  read in
    real space projection operators read in
    PAW grid and wavefunctions read in
 
   number of l-projection  operators is LMAX  =            4
   number of lm-projection operators is LMMAX =            8
 
 POTCAR:    PAW_PBE H_h 06Feb2004                 
   VRHFIN =H: ultrasoft test                                                                        
   LEXCH  = PE                                                                                      
   EATOM  =    12.4884 eV,    0.9179 Ry                                                             
                                                                                                    
   TITEL  = PAW_PBE H_h 06Feb2004                                                                   
   LULTRA =        F    use ultrasoft PP ?                                                          
   IUNSCR =        0    unscreen: 0-lin 1-nonlin 2-no                                               
   RPACOR =    0.000    partial core radius                                                         
   POMASS =    1.000; ZVAL   =    1.000    mass and valenz                                          
   RCORE  =    0.800    outmost cutoff radius                                                       
   RWIGS  =    0.700; RWIGS  =    0.370    wigner-seitz radius (au A)                               
   ENMAX  =  700.000; ENMIN  =  350.000 eV                                                          
   RCLOC  =    0.701    cutoff for local pot                                                        
   LCOR   =        T    correct aug charges                                                         
   LPAW   =        T    paw PP                                                                      
   EAUG   = 1000.000                                                                                
   RMAX   =    0.819    core radius for proj-oper                                                   
   RAUG   =    1.000    factor for augmentation sphere                                              
   RDEP   =    0.817    radius for radial grids                                                     
   RDEPT  =    0.817    core radius for aug-charge                                                  
                                                                                                    
   Atomic configuration                                                                             
    2 entries                                                                                       
     n  l   j            E        occ.                                                              
     1  0  0.50        -6.4927   1.0000                                                             
     2  1  0.50        -3.4015   0.0000                                                             
   Description                                                                                      
     l       E           TYP  RCUT    TYP  RCUT                                                     
     0     -6.4927493     23  0.800                                                                 
     0      6.8029130     23  0.800                                                                 
     1     -6.8029130     23  0.800                                                                 
  local pseudopotential read in
  atomic valenz-charges read in
  non local Contribution for L=            0  read in
    real space projection operators read in
  non local Contribution for L=            0  read in
    real space projection operators read in
  non local Contribution for L=            1  read in
    real space projection operators read in
    PAW grid and wavefunctions read in
 
   number of l-projection  operators is LMAX  =            3
   number of lm-projection operators is LMMAX =            5
 
 Optimization of the real space projectors (new method)

 maximal supplied QI-value         = 16.25
 optimisation between [QCUT,QGAM] = [ 14.46, 28.93] = [ 58.58,234.33] Ry 
 Optimized for a Real-space Cutoff    1.35 Angstroem

   l    n(q)    QCUT    max X(q) W(low)/X(q) W(high)/X(q)  e(spline) 
   2     11    14.464     4.610    0.56E-04    0.10E-03    0.52E-06
   2     11    14.464     8.522    0.88E-04    0.16E-03    0.84E-06
   0     12    14.464    51.609    0.44E-04    0.29E-04    0.63E-06
   0     12    14.464    27.747    0.38E-04    0.27E-04    0.60E-06
   1     11    14.464    20.408    0.64E-04    0.66E-04    0.14E-06
   1     11    14.464    13.425    0.56E-04    0.59E-04    0.13E-06
 Optimization of the real space projectors (new method)

 maximal supplied QI-value         = 34.20
 optimisation between [QCUT,QGAM] = [ 14.37, 28.73] = [ 57.79,231.16] Ry 
 Optimized for a Real-space Cutoff    0.98 Angstroem

   l    n(q)    QCUT    max X(q) W(low)/X(q) W(high)/X(q)  e(spline) 
   0      8    14.366   280.207    0.54E-04    0.14E-03    0.22E-06
   0      8    14.366   228.978    0.55E-04    0.14E-03    0.22E-06
   1      8    14.366    86.127    0.24E-03    0.25E-03    0.26E-06
   1      8    14.366    65.368    0.24E-03    0.24E-03    0.26E-06
 Optimization of the real space projectors (new method)

 maximal supplied QI-value         = 47.24
 optimisation between [QCUT,QGAM] = [ 14.17, 28.82] = [ 56.25,232.56] Ry 
 Optimized for a Real-space Cutoff    0.95 Angstroem

   l    n(q)    QCUT    max X(q) W(low)/X(q) W(high)/X(q)  e(spline) 
   0      8    14.173    34.671    0.25E-03    0.45E-03    0.25E-06
   0      8    14.173    17.046    0.24E-03    0.43E-03    0.25E-06
   1      8    14.173     1.978    0.58E-04    0.22E-03    0.31E-06
 -----------------------------------------------------------------------------
|                                                                             |
|               ----> ADVICE to this user running VASP <----                  |
|                                                                             |
|     You enforced a specific xc type in the INCAR file but a different       |
|     type was found in the POTCAR file.                                      |
|     I HOPE YOU KNOW WHAT YOU ARE DOING!                                     |
|                                                                             |
 -----------------------------------------------------------------------------

  PAW_PBE Cu 22Jun2005                  :
 energy of atom  1       EATOM=-1390.9808
 kinetic energy error for atom=    0.0007 (will be added to EATOM!!)
  PAW_PBE O_h 06Feb2004                 :
 energy of atom  2       EATOM= -432.3788
 kinetic energy error for atom=    0.0500 (will be added to EATOM!!)
  PAW_PBE H_h 06Feb2004                 :
 energy of atom  3       EATOM=  -12.4884
 kinetic energy error for atom=    0.0035 (will be added to EATOM!!)
 
 
 POSCAR: Cu O  H
  positions in cartesian coordinates
  No initial velocities read in


 exchange-correlation table for R2SCAN
   RHO(1)=    0.500       N(1)  =     2000
   RHO(2)=  100.500       N(2)  =     4000
 


--------------------------------------------------------------------------------------------------------


 ion  position               nearest neighbor table
   1  0.665  0.114  0.326-   8 2.41  15 2.52  32 2.52  18 2.59   2 2.60   4 2.60   5 2.64  17 2.64
                            16 2.66
   2  0.921  0.128  0.332-  19 2.37  18 2.43  13 2.52   5 2.54   3 2.55  16 2.56  29 2.59   1 2.60
                             6 2.62
   3  0.172  0.128  0.326-   4 2.42  13 2.49   6 2.50   7 2.52   2 2.55  19 2.55  30 2.58  20 2.70
                            14 2.73
   4  0.410  0.128  0.332-   8 2.39   7 2.40  20 2.41   3 2.42  31 2.53  17 2.58   1 2.60  14 2.63
                            15 2.71
   5  0.793  0.376  0.323-  12 2.46  21 2.52   8 2.53   2 2.54   9 2.56  18 2.57   1 2.64  22 2.68
                             6 2.72
   6  0.059  0.380  0.334-  22 2.42  19 2.43  10 2.44  23 2.46   7 2.47   9 2.49   3 2.50   2 2.62
                             5 2.72
   7  0.303  0.372  0.331-   4 2.40   8 2.46  11 2.47   6 2.47  24 2.49   3 2.52  10 2.57  23 2.58
                            20 2.62
   8  0.545  0.351  0.328-   4 2.39   1 2.41   7 2.46  17 2.51  24 2.52   5 2.53  11 2.59  21 2.61
                            12 2.79
   9  0.930  0.621  0.329-  22 2.41  16 2.45  25 2.48  10 2.49   6 2.49  12 2.50  26 2.55   5 2.56
                            13 2.61
  10  0.175  0.624  0.331-  14 2.44   6 2.44  27 2.45   9 2.49  23 2.53  26 2.54   7 2.57  11 2.57
                            13 2.61
  11  0.427  0.612  0.322-   7 2.47  14 2.49  15 2.55  10 2.57   8 2.59  12 2.61  24 2.64  27 2.71
                            28 2.79
  12  0.684  0.626  0.327-   5 2.46  21 2.47  16 2.49   9 2.50  15 2.52  28 2.52  25 2.52  11 2.61
                             8 2.79
  13  0.050  0.883  0.335-  30 2.36  29 2.39  16 2.42   3 2.49   2 2.52  26 2.53  14 2.60  10 2.61
                             9 2.61
  14  0.303  0.857  0.323- 116 2.19  10 2.44  27 2.45  15 2.49  11 2.49  13 2.60   4 2.63  30 2.67
                             3 2.73  31 2.73
  15  0.547  0.864  0.334-  31 2.37  28 2.38  32 2.41  14 2.49  12 2.52   1 2.52  11 2.55   4 2.71
                            16 2.74
  16  0.815  0.865  0.322-  13 2.42   9 2.45  12 2.49  25 2.54   2 2.56   1 2.66  29 2.72  15 2.74
                            32 2.76
  17  0.550  0.208  0.400-  40 2.41  18 2.46  24 2.46  33 2.47  20 2.48   8 2.51  37 2.54  31 2.54
                            32 2.54   4 2.58  21 2.61   1 2.64
  18  0.792  0.215  0.395-   2 2.43  21 2.44  17 2.46  37 2.48  19 2.53   5 2.57  32 2.58   1 2.59
                            22 2.60  34 2.64  38 2.69  29 2.72
  19  0.041  0.202  0.396-   2 2.37   6 2.43  29 2.48  38 2.49  18 2.53  35 2.55   3 2.55  30 2.57
                            22 2.62  20 2.69  39 2.70  23 2.70
  20  0.306  0.195  0.401-  36 2.36   4 2.41  39 2.44  30 2.45  17 2.48  40 2.50  31 2.50   7 2.62
                            24 2.63  23 2.68  19 2.69   3 2.70
  21  0.682  0.462  0.393-  28 2.42  18 2.44  22 2.47  12 2.47  24 2.50   5 2.52  25 2.57  44 2.59
                            17 2.61   8 2.61  37 2.64  41 2.64
  22  0.925  0.468  0.396-  26 2.40   9 2.41   6 2.42  21 2.47  41 2.48  25 2.49  23 2.59  18 2.60
                            42 2.61  19 2.62  38 2.62   5 2.68
  23  0.180  0.464  0.401-  42 2.38   6 2.46  43 2.47  39 2.47  26 2.49  10 2.53   7 2.58  27 2.59
                            22 2.59  24 2.60  20 2.68  19 2.70
  24  0.435  0.454  0.396-  17 2.46   7 2.49  21 2.50   8 2.52  40 2.54  28 2.55  43 2.55  44 2.58
                            23 2.60  20 2.63  11 2.64  27 2.71
  25  0.807  0.716  0.394-  29 2.41  28 2.44  26 2.44   9 2.48  22 2.49  32 2.50  12 2.52  16 2.54
                            48 2.55  21 2.57  45 2.61  41 2.64
  26  0.047  0.702  0.400-  45 2.40  22 2.40  42 2.44  25 2.44  29 2.48  23 2.49  13 2.53  10 2.54
                             9 2.55  46 2.56  27 2.59  30 2.62
  27  0.301  0.722  0.394-  30 2.40  31 2.43  14 2.45  10 2.45  46 2.51  23 2.59  26 2.59  47 2.63
                            43 2.67  28 2.70  11 2.71  24 2.71
  28  0.567  0.702  0.397-  15 2.38  21 2.42  25 2.44  32 2.47  44 2.50  12 2.52  48 2.53  24 2.55
                            31 2.57  47 2.57  27 2.70  11 2.79
  29  0.930  0.951  0.400-  13 2.39  25 2.41  45 2.42  34 2.44  19 2.48  26 2.48  35 2.51  30 2.54
                             2 2.59  32 2.61  18 2.72  16 2.72
  30  0.180  0.957  0.396-  13 2.36  27 2.40  20 2.45  35 2.52  29 2.54  46 2.55  19 2.57  31 2.57
                             3 2.58  36 2.60  26 2.62  14 2.67
  31  0.434  0.952  0.398-  15 2.37  32 2.42  27 2.43  47 2.48  20 2.50  36 2.52   4 2.53  17 2.54
                            33 2.55  28 2.57  30 2.57  14 2.73
  32  0.673  0.956  0.396-  15 2.41  31 2.42  28 2.47  33 2.50  25 2.50   1 2.52  17 2.54  48 2.55
                            18 2.58  29 2.61  34 2.64  16 2.76
  33  0.562  0.042  0.466-  17 2.47  32 2.50  47 2.54  36 2.54  48 2.54  52 2.54  40 2.54  63 2.54
                            49 2.54  37 2.54  34 2.54  31 2.55
  34  0.813  0.042  0.466-  29 2.44  45 2.54  35 2.54  48 2.54  50 2.54  38 2.54  64 2.54  49 2.54
                            37 2.54  33 2.54  18 2.64  32 2.64
  35  0.063  0.042  0.466-  29 2.51  30 2.52  34 2.54  46 2.54  45 2.54  61 2.54  36 2.54  51 2.54
                            39 2.54  50 2.54  38 2.54  19 2.55
  36  0.313  0.042  0.466-  20 2.36  31 2.52  33 2.54  47 2.54  46 2.54  62 2.54  35 2.54  52 2.54
                            51 2.54  40 2.54  39 2.54  30 2.60
  37  0.688  0.292  0.466-  18 2.48  38 2.54  40 2.54  41 2.54  44 2.54  53 2.54  56 2.54  49 2.54
                            34 2.54  33 2.54  17 2.54  21 2.64
  38  0.937  0.292  0.466-  19 2.49  41 2.54  37 2.54  42 2.54  53 2.54  34 2.54  39 2.54  54 2.54
                            50 2.54  35 2.54  22 2.62  18 2.69
  39  0.187  0.292  0.466-  20 2.44  23 2.47  42 2.54  43 2.54  54 2.54  55 2.54  38 2.54  35 2.54
                            51 2.54  36 2.54  40 2.54  19 2.70
  40  0.438  0.292  0.466-  17 2.41  20 2.50  24 2.54  44 2.54  37 2.54  43 2.54  56 2.54  33 2.54
                            55 2.54  52 2.54  36 2.54  39 2.54
  41  0.813  0.542  0.466-  22 2.48  38 2.54  37 2.54  42 2.54  45 2.54  57 2.54  48 2.54  53 2.54
                            60 2.54  44 2.54  25 2.64  21 2.64
  42  0.063  0.542  0.466-  23 2.38  26 2.44  39 2.54  38 2.54  41 2.54  43 2.54  46 2.54  58 2.54
                            54 2.54  45 2.54  57 2.54  22 2.61
  43  0.313  0.542  0.466-  23 2.47  44 2.54  40 2.54  39 2.54  42 2.54  47 2.54  46 2.54  55 2.54
                            59 2.54  58 2.54  24 2.55  27 2.67
  44  0.562  0.542  0.466-  28 2.50  40 2.54  43 2.54  37 2.54  47 2.54  59 2.54  48 2.54  56 2.54
                            60 2.54  41 2.54  24 2.58  21 2.59
  45  0.937  0.792  0.466-  26 2.40  29 2.42  34 2.54  48 2.54  35 2.54  41 2.54  64 2.54  46 2.54
                            57 2.54  42 2.54  61 2.54  25 2.61
  46  0.187  0.792  0.466-  27 2.51  35 2.54  36 2.54  42 2.54  45 2.54  61 2.54  43 2.54  58 2.54
                            62 2.54  47 2.54  30 2.55  26 2.56
  47  0.438  0.792  0.466-  31 2.48  33 2.54  48 2.54  36 2.54  44 2.54  63 2.54  43 2.54  59 2.54
                            62 2.54  46 2.54  28 2.57  27 2.63
  48  0.688  0.792  0.466-  28 2.53  45 2.54  47 2.54  34 2.54  33 2.54  41 2.54  44 2.54  60 2.54
                            64 2.54  63 2.54  25 2.55  32 2.55
  49  0.688  0.125  0.534-  80 2.48  65 2.51  50 2.54  52 2.54  53 2.54  56 2.54  64 2.54  63 2.54
                            37 2.54  34 2.54  33 2.54  66 2.63
  50  0.937  0.125  0.534-  77 2.51  53 2.54  64 2.54  49 2.54  54 2.54  61 2.54  34 2.54  51 2.54
                            38 2.54  35 2.54  66 2.62  67 2.65
  51  0.187  0.125  0.534-  78 2.48  67 2.51  54 2.54  55 2.54  61 2.54  62 2.54  50 2.54  35 2.54
                            39 2.54  36 2.54  52 2.54  68 2.56
  52  0.438  0.125  0.534-  56 2.54  63 2.54  49 2.54  55 2.54  62 2.54  33 2.54  40 2.54  36 2.54
                            51 2.54  68 2.55  65 2.55  79 2.65
  53  0.813  0.375  0.534-  70 2.51  69 2.51  50 2.54  49 2.54  54 2.54  38 2.54  57 2.54  37 2.54
                            60 2.54  41 2.54  56 2.54  66 2.56
  54  0.063  0.375  0.534-  71 2.49  70 2.51  51 2.54  50 2.54  53 2.54  39 2.54  55 2.54  58 2.54
                            38 2.54  42 2.54  57 2.54  67 2.57
  55  0.313  0.375  0.534-  68 2.50  71 2.53  56 2.54  52 2.54  51 2.54  54 2.54  40 2.54  39 2.54
                            59 2.54  58 2.54  43 2.54  72 2.61
  56  0.562  0.375  0.534-  52 2.54  55 2.54  49 2.54  40 2.54  59 2.54  37 2.54  60 2.54  44 2.54
                            53 2.54  72 2.57  69 2.58  65 2.59
  57  0.937  0.625  0.534-  74 2.46  73 2.50  60 2.54  53 2.54  64 2.54  41 2.54  58 2.54  45 2.54
                            54 2.54  61 2.54  42 2.54  70 2.59
  58  0.187  0.625  0.534-  71 2.44  74 2.48  54 2.54  61 2.54  57 2.54  42 2.54  55 2.54  62 2.54
                            46 2.54  43 2.54  59 2.54  75 2.60
  59  0.438  0.625  0.534-  76 2.51  60 2.54  56 2.54  63 2.54  44 2.54  55 2.54  62 2.54  47 2.54
                            43 2.54  58 2.54  72 2.61  75 2.63
  60  0.688  0.625  0.534-  76 2.43  73 2.53  57 2.54  59 2.54  53 2.54  56 2.54  64 2.54  63 2.54
                            48 2.54  41 2.54  44 2.54  69 2.59
  61  0.063  0.875  0.534-  74 2.49  78 2.49  64 2.54  51 2.54  50 2.54  35 2.54  62 2.54  58 2.54
                            46 2.54  57 2.54  45 2.54  77 2.63
  62  0.313  0.875  0.534-  63 2.54  52 2.54  51 2.54  36 2.54  61 2.54  59 2.54  58 2.54  47 2.54
                            46 2.54  79 2.54  78 2.54  75 2.54
  63  0.562  0.875  0.534-  80 2.52  76 2.52  52 2.54  62 2.54  59 2.54  49 2.54  47 2.54  33 2.54
                            60 2.54  48 2.54  64 2.54  79 2.55
  64  0.813  0.875  0.534-  50 2.54  61 2.54  57 2.54  49 2.54  45 2.54  34 2.54  60 2.54  48 2.54
                            63 2.54  80 2.54  73 2.54  77 2.57
  65  0.567  0.201  0.604-  80 2.40  88 2.45  81 2.47  49 2.51  66 2.51  85 2.53  52 2.55  68 2.56
                            69 2.56  72 2.57  56 2.59  79 2.62
  66  0.814  0.217  0.606-  70 2.38  69 2.40  85 2.42  77 2.48  86 2.49  65 2.51  82 2.52  53 2.56
                            80 2.57  50 2.62  49 2.63  67 2.66
  67  0.077  0.210  0.605-  68 2.41  78 2.42  83 2.43  87 2.44  51 2.51  71 2.51  70 2.52  54 2.57
                            77 2.57  86 2.61  50 2.65  66 2.66
  68  0.314  0.216  0.603-  67 2.41  87 2.43  72 2.48  55 2.50  88 2.55  52 2.55  51 2.56  65 2.56
                            84 2.57  71 2.59  78 2.59  79 2.69
  69  0.695  0.453  0.604-  92 2.38  66 2.40  89 2.43  85 2.45  70 2.46  53 2.51  76 2.52  73 2.53
                            72 2.56  65 2.56  56 2.58  60 2.59
  70  0.938  0.447  0.603-  66 2.38  69 2.46  89 2.47  86 2.48  71 2.49  54 2.51  53 2.51  67 2.52
                            90 2.52  73 2.57  74 2.59  57 2.59
  71  0.183  0.468  0.601-  74 2.43  90 2.43  58 2.44  54 2.49  70 2.49  67 2.51  55 2.53  75 2.55
                            68 2.59  87 2.61  72 2.63  91 2.66
  72  0.442  0.456  0.606-  68 2.48  88 2.49  91 2.49  92 2.51  76 2.52  69 2.56  56 2.57  65 2.57
                            59 2.61  55 2.61  71 2.63  75 2.67
  73  0.816  0.704  0.603-  96 2.44  74 2.48  89 2.48  76 2.49  57 2.50  93 2.50  69 2.53  60 2.53
                            64 2.54  70 2.57  77 2.61  80 2.64
  74  0.060  0.705  0.601-  71 2.43  90 2.45  57 2.46  58 2.48  73 2.48  61 2.49  93 2.50  75 2.53
                            94 2.56  78 2.58  70 2.59  77 2.66
  75  0.309  0.718  0.605-  79 2.36  94 2.45  78 2.51  74 2.53  95 2.54  62 2.54  91 2.54  71 2.55
                            58 2.60  59 2.63  76 2.66  72 2.67
  76  0.571  0.701  0.601-  60 2.43  92 2.45  73 2.49  59 2.51  69 2.52  72 2.52  63 2.52  79 2.53
                            95 2.58  80 2.59  96 2.63  75 2.66
  77  0.932  0.970  0.604-  83 2.43  82 2.48  66 2.48  80 2.50  93 2.51  50 2.51  78 2.55  67 2.57
                            64 2.57  73 2.61  61 2.63  74 2.66
  78  0.183  0.963  0.602-  67 2.42  51 2.48  83 2.49  61 2.49  75 2.51  62 2.54  77 2.55  84 2.57
                            79 2.58  74 2.58  68 2.59  94 2.59
  79  0.436  0.944  0.605-  75 2.36  95 2.42  84 2.46  76 2.53  80 2.54  62 2.54  81 2.55  63 2.55
                            78 2.58  65 2.62  52 2.65  68 2.69
  80  0.686  0.965  0.602-  65 2.40  49 2.48  81 2.49  77 2.50  63 2.52  64 2.54  79 2.54  66 2.57
                            96 2.58  76 2.59  73 2.64  82 2.68
  81  0.568  0.042  0.671-  88 2.43  65 2.47  80 2.49  95 2.51  84 2.53  85 2.55  79 2.55  82 2.58
                            96 2.63
  82  0.822  0.051  0.674-  83 2.41  86 2.48  77 2.48  85 2.52  66 2.52  96 2.57  81 2.58  93 2.59
                            80 2.68
  83  0.059  0.045  0.669-  82 2.41  77 2.43  67 2.43  78 2.49  93 2.53  86 2.55  94 2.57  87 2.57
                            84 2.63
  84  0.319  0.037  0.671-  79 2.46  81 2.53  87 2.53  95 2.53  88 2.55  68 2.57  78 2.57  94 2.59
                            83 2.63
  85  0.692  0.295  0.671-  66 2.42  88 2.44  69 2.45  92 2.45  89 2.48  86 2.50  82 2.52  65 2.53
                            81 2.55
  86  0.938  0.299  0.673- 131 2.18  89 2.43  82 2.48  70 2.48  66 2.49  85 2.50  83 2.55  90 2.57
                            67 2.61  87 2.64
  87  0.199  0.290  0.670-  68 2.43  67 2.44  84 2.53  91 2.55  88 2.56  83 2.57  71 2.61  90 2.63
                            86 2.64
  88  0.452  0.284  0.671-  81 2.43  85 2.44  65 2.45  72 2.49  68 2.55  84 2.55  87 2.56  91 2.64
                            92 2.66
  89  0.817  0.537  0.669-  92 2.36  86 2.43  69 2.43  70 2.47  85 2.48  96 2.48  73 2.48  90 2.55
                            93 2.57
  90  0.069  0.549  0.668-  94 2.39  71 2.43  74 2.45  93 2.48  70 2.52  89 2.55  91 2.56  86 2.57
                            87 2.63
  91  0.320  0.544  0.673-  72 2.49  95 2.53  75 2.54  87 2.55  90 2.56  94 2.57  88 2.64  71 2.66
                            92 2.68
  92  0.585  0.545  0.668-  89 2.36  69 2.38  76 2.45  85 2.45  96 2.49  72 2.51  95 2.56  88 2.66
                            91 2.68
  93  0.943  0.791  0.669-  96 2.38  94 2.42  90 2.48  73 2.50  74 2.50  77 2.51  83 2.53  89 2.57
                            82 2.59
  94  0.181  0.789  0.671-  90 2.39  93 2.42  75 2.45  74 2.56  83 2.57  91 2.57  78 2.59  84 2.59
                            95 2.72
  95  0.449  0.791  0.672-  79 2.42  81 2.51  84 2.53  91 2.53  75 2.54  92 2.56  76 2.58  96 2.63
                            94 2.72
  96  0.708  0.790  0.670-  93 2.38  73 2.44  89 2.48  92 2.49  82 2.57  80 2.58  81 2.63  95 2.63
                            76 2.63
  97  0.893  0.045  0.846- 148 0.92 147 0.97
  98  0.189  0.260  0.120- 149 0.95 150 0.99
  99  0.799  0.912  0.100- 152 0.95 230 0.96
 100  0.460  0.357  0.024- 153 0.93 154 0.97
 101  0.809  0.632  0.778- 155 0.97 156 1.00
 102  0.041  0.001  0.127- 158 1.00 171 1.01
 103  0.760  0.093  0.022- 160 0.98 175 0.98
 104  0.920  0.207  0.195- 157 0.99 162 0.99
 105  0.210  0.113  0.958- 163 0.96 188 0.98
 106  0.217  0.931  0.886- 164 0.96 165 0.98
 107  0.422  0.114  0.093- 167 0.98 161 0.99
 108  0.044  0.471  0.853- 169 0.95 170 0.97
 109  0.052  0.819  0.211- 172 0.93 159 0.97
 110  0.373  0.320  0.921- 174 0.98 173 1.02
 111  0.090  0.203  0.814- 151 0.96 176 1.05
 112  0.813  0.003  0.256- 177 0.94 184 1.03
 113  0.472  0.372  0.218- 178 0.96 179 1.01
 114  0.475  0.830  0.042- 180 0.96 181 0.99
 115  0.609  0.703  0.831- 182 0.96 183 0.98
 116  0.314  0.878  0.251- 166 0.96 185 0.97  14 2.19
 117  0.537  0.629  0.135- 187 0.95 186 1.02
 118  0.159  0.960  0.040- 190 0.96 189 0.98
 119  0.561  0.915  0.147- 168 0.93 191 1.02
 120  0.819  0.317  0.883- 192 0.96 196 0.96
 121  0.217  0.627  0.911- 195 0.96 193 1.00
 122  0.931  0.265  0.966- 194 0.96 197 0.98
 123  0.678  0.495  0.061- 199 0.93 198 1.00
 124  0.588  0.079  0.944- 200 0.96 203 1.01
 125  0.230  0.813  0.757- 222 0.97 201 0.97
 126  0.482  0.004  0.855- 204 0.98 202 1.00
 127  0.270  0.556  0.135- 205 0.93 206 1.01
 128  0.532  0.073  0.218- 207 0.94 209 0.96
 129  0.948  0.887  0.991- 210 0.99 208 1.02
 130  0.197  0.189  0.223- 213 0.98 212 0.98
 131  0.949  0.354  0.744- 214 0.95 218 1.01  86 2.18
 132  0.905  0.773  0.902- 217 0.96 215 1.00
 133  0.664  0.676  0.219- 219 0.95 216 1.03
 134  0.012  0.564  0.010- 221 0.95 220 1.00
 135  0.447  0.333  0.829- 236 0.95 226 1.00
 136  0.850  0.445  0.245- 225 1.02 223 1.04
 137  0.261  0.620  0.007- 227 0.93 224 1.00
 138  0.682  0.689  0.986- 229 0.94 228 0.98
 139  0.577  0.508  0.913- 231 0.97 233 0.99
 140  0.037  0.761  0.814- 232 1.03 234 1.03
 141  0.306  0.131  0.776- 211 0.97 235 1.00
 142  0.144  0.508  0.218- 237 0.93 238 0.98
 143  0.751  0.981  0.774- 240 0.98 239 0.99
 144  0.458  0.622  0.767- 242 0.99 241 1.01
 145  0.831  0.440  0.137- 244 0.94 243 0.95
 146  0.992  0.668  0.098- 245 0.96 246 0.98
 147  0.856  0.030  0.817-  97 0.97
 148  0.902  0.946  0.856-  97 0.92
 149  0.225  0.226  0.147-  98 0.95
 150  0.198  0.372  0.121-  98 0.99
 151  0.026  0.131  0.825- 111 0.96
 152  0.729  0.929  0.120-  99 0.95
 153  0.391  0.411  0.011- 100 0.93
 154  0.429  0.312  0.052- 100 0.97
 155  0.810  0.644  0.746- 101 0.97
 156  0.869  0.708  0.792- 101 1.00
 157  0.010  0.172  0.202- 104 0.99
 158  0.049  0.112  0.134- 102 1.00
 159  0.045  0.867  0.182- 109 0.97
 160  0.827  0.161  0.009- 103 0.98
 161  0.415  0.036  0.070- 107 0.99
 162  0.928  0.306  0.210- 104 0.99
 163  0.196  0.025  0.939- 105 0.96
 164  0.293  0.941  0.867- 106 0.96
 165  0.143  0.921  0.865- 106 0.98
 166  0.225  0.857  0.242- 116 0.96
 167  0.333  0.153  0.090- 107 0.98
 168  0.512  0.976  0.128- 119 0.93
 169  0.960  0.455  0.866- 108 0.95
 170  0.101  0.524  0.874- 108 0.97
 171  0.944  0.978  0.127- 102 1.01
 172  0.032  0.717  0.208- 109 0.93
 173  0.303  0.251  0.936- 110 1.02
 174  0.369  0.308  0.889- 110 0.98
 175  0.687  0.108  0.001- 103 0.98
 176  0.077  0.299  0.835- 111 1.05
 177  0.863  0.917  0.249- 112 0.94
 178  0.443  0.363  0.248- 113 0.96
 179  0.552  0.437  0.223- 113 1.01
 180  0.398  0.780  0.031- 114 0.96
 181  0.543  0.779  0.024- 114 0.99
 182  0.605  0.631  0.855- 115 0.96
 183  0.679  0.666  0.811- 115 0.98
 184  0.838  0.083  0.233- 112 1.03
 185  0.334  0.983  0.244- 116 0.97
 186  0.547  0.745  0.138- 117 1.02
 187  0.593  0.596  0.111- 117 0.95
 188  0.243  0.072  0.986- 105 0.98
 189  0.135  0.987  0.071- 118 0.98
 190  0.160  0.852  0.037- 118 0.96
 191  0.552  0.994  0.172- 119 1.02
 192  0.805  0.213  0.875- 120 0.96
 193  0.287  0.547  0.909- 121 1.00
 194  0.017  0.222  0.969- 122 0.96
 195  0.246  0.725  0.900- 121 0.96
 196  0.866  0.296  0.910- 120 0.96
 197  0.941  0.368  0.978- 122 0.98
 198  0.593  0.448  0.051- 123 1.00
 199  0.693  0.562  0.037- 123 0.93
 200  0.579  0.080  0.913- 124 0.96
 201  0.271  0.905  0.768- 125 0.97
 202  0.544  0.924  0.843- 126 1.00
 203  0.537  0.175  0.951- 124 1.01
 204  0.471  0.067  0.828- 126 0.98
 205  0.217  0.620  0.118- 127 0.93
 206  0.369  0.572  0.135- 127 1.01
 207  0.584  0.032  0.241- 128 0.94
 208  0.020  0.938  0.009- 129 1.02
 209  0.548  0.181  0.219- 128 0.96
 210  0.867  0.935  0.003- 129 0.99
 211  0.228  0.145  0.795- 141 0.97
 212  0.158  0.175  0.252- 130 0.98
 213  0.216  0.299  0.221- 130 0.98
 214  0.901  0.436  0.756- 131 0.95
 215  0.925  0.826  0.931- 132 1.00
 216  0.622  0.639  0.190- 133 1.03
 217  0.811  0.782  0.899- 132 0.96
 218  0.002  0.291  0.765- 131 1.01
 219  0.592  0.720  0.235- 133 0.95
 220  0.004  0.659  0.992- 134 1.00
 221  0.980  0.602  0.037- 134 0.95
 222  0.305  0.745  0.756- 125 0.97
 223  0.792  0.539  0.237- 136 1.04
 224  0.178  0.568  0.016- 137 1.00
 225  0.932  0.497  0.258- 136 1.02
 226  0.443  0.440  0.817- 135 1.00
 227  0.249  0.614  0.976- 137 0.93
 228  0.767  0.738  0.980- 138 0.98
 229  0.648  0.643  0.960- 138 0.94
 230  0.780  0.961  0.072-  99 0.96
 231  0.646  0.449  0.898- 139 0.97
 232  0.091  0.755  0.785- 140 1.03
 233  0.507  0.436  0.922- 139 0.99
 234  0.024  0.648  0.822- 140 1.03
 235  0.272  0.140  0.746- 141 1.00
 236  0.410  0.271  0.806- 135 0.95
 237  0.172  0.576  0.240- 142 0.93
 238  0.191  0.537  0.191- 142 0.98
 239  0.732  0.052  0.749- 143 0.99
 240  0.757  0.879  0.761- 143 0.98
 241  0.504  0.677  0.792- 144 1.01
 242  0.526  0.572  0.749- 144 0.99
 243  0.771  0.429  0.113- 145 0.95
 244  0.859  0.340  0.143- 145 0.94
 245  0.944  0.761  0.093- 146 0.96
 246  0.930  0.593  0.109- 146 0.98
 
  LATTYP: Found a simple orthorhombic cell.
 ALAT       =     8.7818242399
 B/A-ratio  =     1.1547005384
 C/A-ratio  =     3.4310783653
  
  Lattice vectors:
  
 A1 = (   0.0000000000,  -8.7818242399,   0.0000000000)
 A2 = (  10.1403771778,   0.0000000000,   0.0000000000)
 A3 = (   0.0000000000,   0.0000000000,  30.1311271579)


Analysis of symmetry for initial positions (statically):
=====================================================================
 Subroutine PRICEL returns:
 Original cell was already a primitive cell.
 

 Routine SETGRP: Setting up the symmetry group for a 
 simple orthorhombic supercell.


 Subroutine GETGRP returns: Found  1 space group operations
 (whereof  1 operations were pure point group operations)
 out of a pool of  8 trial point group operations.


The static configuration has the point symmetry C_1 .


Analysis of symmetry for dynamics (positions and initial velocities):
=====================================================================
 Subroutine PRICEL returns:
 Original cell was already a primitive cell.
 

 Routine SETGRP: Setting up the symmetry group for a 
 simple orthorhombic supercell.


 Subroutine GETGRP returns: Found  1 space group operations
 (whereof  1 operations were pure point group operations)
 out of a pool of  8 trial point group operations.


The dynamic configuration has the point symmetry C_1 .


 Subroutine INISYM returns: Found  1 space group operations
 (whereof  1 operations are pure point group operations),
 and found     1 'primitive' translations


----------------------------------------------------------------------------------------

                                     Primitive cell                                     

  volume of cell :    2683.2073

  direct lattice vectors                    reciprocal lattice vectors
    10.140377178  0.000000000  0.000000000     0.098615661  0.000000000  0.000000000
     0.000000000  8.781824240  0.000000000     0.000000000  0.113871557  0.000000000
     0.000000000  0.000000000 30.131127158     0.000000000  0.000000000  0.033188271

  length of vectors
    10.140377178  8.781824240 30.131127158     0.098615661  0.113871557  0.033188271

  position of ions in fractional coordinates (direct lattice)
     0.665492997  0.114102716  0.326024644
     0.920863183  0.128412955  0.331569076
     0.171952184  0.128070202  0.326423567
     0.409779629  0.128112334  0.332051966
     0.793254517  0.375640631  0.323205300
     0.059258249  0.380036073  0.334332000
     0.302815166  0.371716617  0.331059304
     0.545007341  0.351127501  0.327510815
     0.929779024  0.620696777  0.329081947
     0.174909667  0.624038907  0.331160197
     0.426724758  0.612026596  0.321723444
     0.683714213  0.625867684  0.326746489
     0.050245172  0.883124028  0.334743534
     0.303007467  0.857305930  0.323434299
     0.546895831  0.863631495  0.333744567
     0.815191571  0.865478492  0.322445289
     0.550186635  0.207995509  0.399606690
     0.791806839  0.215295814  0.394532204
     0.040806470  0.201504830  0.395507939
     0.305921559  0.194966325  0.401229597
     0.681793180  0.461999681  0.393456904
     0.924945871  0.468215930  0.395607504
     0.179758600  0.463672454  0.400974047
     0.435276708  0.454303103  0.396145154
     0.806632718  0.716439982  0.394479103
     0.046883759  0.702408729  0.399935254
     0.301050932  0.721738426  0.394379538
     0.566574586  0.702399619  0.397044556
     0.930370718  0.950524603  0.400207398
     0.180452854  0.957108657  0.396102009
     0.434232369  0.951606383  0.397748147
     0.672867476  0.955940334  0.395955981
     0.562499787  0.041666628  0.465651349
     0.812500349  0.041666628  0.465651349
     0.062500042  0.041666628  0.465651349
     0.312500210  0.041666628  0.465651349
     0.687500068  0.291667190  0.465651349
     0.937499645  0.291667190  0.465651349
     0.187499929  0.291667190  0.465651349
     0.437500492  0.291667190  0.465651349
     0.812500349  0.541666500  0.465651349
     0.062500042  0.541666500  0.465651349
     0.312500210  0.541666500  0.465651349
     0.562499787  0.541666500  0.465651349
     0.937499645  0.791666949  0.465651349
     0.187499929  0.791666949  0.465651349
     0.437500492  0.791666949  0.465651349
     0.687500068  0.791666949  0.465651349
     0.687500068  0.125000224  0.534347750
     0.937499645  0.125000224  0.534347750
     0.187499929  0.125000224  0.534347750
     0.437500492  0.125000224  0.534347750
     0.812500349  0.374999534  0.534347750
     0.062500042  0.374999534  0.534347750
     0.312500210  0.374999534  0.534347750
     0.562499787  0.374999534  0.534347750
     0.937499645  0.624999983  0.534347750
     0.187499929  0.624999983  0.534347750
     0.437500492  0.624999983  0.534347750
     0.687500068  0.624999983  0.534347750
     0.062500042  0.875000432  0.534347750
     0.312500210  0.875000432  0.534347750
     0.562499787  0.875000432  0.534347750
     0.812500349  0.875000432  0.534347750
     0.566747163  0.200935472  0.603638221
     0.814023961  0.217191776  0.605725763
     0.076630088  0.210159068  0.604511073
     0.314189497  0.215743329  0.603077339
     0.694895257  0.452749895  0.604063031
     0.937663347  0.447413874  0.602957862
     0.182899508  0.468095226  0.600966565
     0.442157123  0.455904137  0.605526634
     0.815892728  0.704246616  0.602576197
     0.060377537  0.705355725  0.600591538
     0.309242935  0.718084287  0.605277722
     0.570815059  0.701412353  0.601076087
     0.931974209  0.969798503  0.604388276
     0.182853159  0.963298714  0.601819504
     0.436092260  0.943767465  0.604826361
     0.685665817  0.964576353  0.602101604
     0.568132713  0.041652735  0.671080106
     0.822113404  0.050901725  0.674000674
     0.059294836  0.045308923  0.669151867
     0.318737651  0.037338370  0.670705078
     0.691850005  0.294731474  0.671013729
     0.938310265  0.298986854  0.672981794
     0.198849605  0.290021746  0.670316776
     0.451550265  0.283746285  0.671013729
     0.817195441  0.537174267  0.669032389
     0.068623187  0.549117116  0.667767916
     0.320494982  0.543987202  0.672693056
     0.584759314  0.545150970  0.668375262
     0.942500445  0.791042933  0.669181737
     0.180671781  0.788542313  0.671129888
     0.449295911  0.791332166  0.671740552
     0.708293180  0.790287964  0.670422978
     0.893055538  0.044778965  0.846284305
     0.188820393  0.260075804  0.120098063
     0.798705991  0.911557756  0.099850563
     0.459711697  0.357495199  0.024126977
     0.809296327  0.631617059  0.778122235
     0.041131803  0.001479847  0.126936838
     0.760493408  0.092971230  0.021502581
     0.919597944  0.207051513  0.194534043
     0.210264368  0.112839311  0.957674097
     0.217018555  0.930845321  0.886053809
     0.422249580  0.114363482  0.093434938
     0.044085638  0.470513858  0.852968422
     0.052473393  0.819420863  0.210763108
     0.372938791  0.319745639  0.921449100
     0.089877327  0.202693649  0.814310725
     0.812896784  0.003001171  0.256279161
     0.471620524  0.371590220  0.217589603
     0.475432019  0.830461849  0.042118902
     0.609429008  0.703361834  0.831034294
     0.314249652  0.878156951  0.251034087
     0.537136825  0.629404535  0.134951473
     0.158673585  0.960366522  0.040090435
     0.561083666  0.915357650  0.147309458
     0.818515905  0.316623281  0.883289226
     0.216925856  0.627474412  0.910642999
     0.930715873  0.264651163  0.966153700
     0.678101009  0.494679679  0.060820493
     0.588123094  0.078901260  0.944362282
     0.229711377  0.813009895  0.756818684
     0.481678335  0.004144442  0.854657705
     0.270173382  0.555901583  0.134730771
     0.531848067  0.073137424  0.217802672
     0.948467678  0.886800941  0.990749528
     0.197393052  0.189326267  0.223013230
     0.948835515  0.354028948  0.743556651
     0.905296700  0.773171930  0.901874658
     0.663538435  0.676089596  0.219183968
     0.011984053  0.564079839  0.009511559
     0.446798962  0.333460329  0.828797405
     0.850209006  0.444501039  0.244867043
     0.261040586  0.619802885  0.007111450
     0.681668924  0.689118779  0.985552245
     0.576563366  0.508278221  0.912660846
     0.037164397  0.760732602  0.813607134
     0.305819985  0.130556018  0.776452865
     0.144200751  0.508346544  0.218136878
     0.751215647  0.981055845  0.774016846
     0.458223587  0.622497086  0.767475438
     0.830613088  0.440253630  0.137211594
     0.991600196  0.667921589  0.097554598
     0.855695981  0.030060470  0.816786570
     0.902219892  0.946323881  0.856204279
     0.224757912  0.225595497  0.147353266
     0.198007428  0.371837321  0.120840152
     0.025711353  0.131353118  0.824967479
     0.729165185  0.929132692  0.120473754
     0.390787239  0.410648164  0.010945691
     0.428773006  0.312326907  0.051562625
     0.810012276  0.643557631  0.746009264
     0.869213230  0.707749305  0.792094497
     0.009531874  0.172148743  0.201545397
     0.049280120  0.111683857  0.134432077
     0.045141122  0.867082942  0.181705449
     0.827379480  0.161153305  0.009258698
     0.415206449  0.036378888  0.069729552
     0.927668649  0.305833951  0.209863706
     0.196058782  0.025437653  0.939360810
     0.293034465  0.940744175  0.867096669
     0.142776740  0.920738081  0.865287909
     0.225416664  0.856866386  0.241807416
     0.332720365  0.152821323  0.089730795
     0.511946440  0.975543323  0.128017116
     0.960056991  0.454935090  0.865775776
     0.100954825  0.523564339  0.873604889
     0.943760753  0.978296737  0.127047355
     0.032399091  0.716693916  0.207821963
     0.303430528  0.250516287  0.935683549
     0.368718040  0.307854032  0.889146956
     0.686976419  0.108299025  0.000788980
     0.077402841  0.298753417  0.834685004
     0.863372224  0.916863032  0.248633580
     0.442746845  0.363192193  0.247966163
     0.552188533  0.437225785  0.223244884
     0.398201164  0.780452878  0.030786004
     0.543064612  0.778854121  0.023536192
     0.604890715  0.630907639  0.854853516
     0.678556614  0.666330803  0.811005173
     0.837809073  0.083471495  0.233071268
     0.333839653  0.983026962  0.243814643
     0.546871177  0.744788306  0.138112988
     0.592942441  0.596122156  0.111437584
     0.242937709  0.071573398  0.985894084
     0.135426915  0.986787000  0.070648203
     0.159908253  0.851715976  0.036825041
     0.552313775  0.993632958  0.172225884
     0.805438482  0.212568590  0.874736609
     0.286646142  0.546890927  0.908940441
     0.017279535  0.221876451  0.968652777
     0.246382354  0.724757160  0.900006158
     0.866315902  0.295723295  0.910251377
     0.940598149  0.367654819  0.978081565
     0.593222510  0.447822672  0.051071106
     0.693191178  0.561658929  0.037374639
     0.578562306  0.080151456  0.912733860
     0.270973155  0.905306208  0.768225492
     0.544250959  0.924249880  0.843496490
     0.536549076  0.174626588  0.951325181
     0.470636340  0.067438038  0.828302900
     0.216556047  0.620005576  0.117815373
     0.369115461  0.572112338  0.134892730
     0.583991098  0.031779616  0.240686980
     0.019980914  0.937537552  0.009341635
     0.547730119  0.180517163  0.218819560
     0.867188650  0.934703289  0.002664117
     0.227522109  0.144728472  0.794540472
     0.157769279  0.175168616  0.252425339
     0.215548195  0.298631575  0.220713615
     0.900772214  0.436170196  0.756042078
     0.925131268  0.826119927  0.930585831
     0.622412746  0.639130304  0.189798077
     0.811051685  0.782148425  0.899435320
     0.002309857  0.291159323  0.765026143
     0.591927686  0.719841325  0.234984903
     0.003641169  0.659085156  0.991642292
     0.980321523  0.601708695  0.037085569
     0.304814106  0.744723399  0.755988977
     0.792139174  0.538938138  0.237040585
     0.177996338  0.567809132  0.016306658
     0.931505785  0.496518705  0.257811796
     0.442852364  0.439631891  0.817261162
     0.249402952  0.613697092  0.976461977
     0.767318598  0.738462741  0.980152513
     0.647820084  0.642941585  0.959685306
     0.780209637  0.960705431  0.072075299
     0.645658429  0.449191409  0.898177485
     0.091331317  0.755105069  0.784846178
     0.506982128  0.435993695  0.922063083
     0.024279274  0.648082886  0.822418619
     0.272265020  0.139719262  0.745524715
     0.409509422  0.271182836  0.806388685
     0.172278602  0.575583143  0.239958166
     0.191111234  0.536783688  0.190940086
     0.732100973  0.051817708  0.749231845
     0.756775598  0.879214818  0.760797958
     0.504412204  0.677361541  0.792340090
     0.525833498  0.572304781  0.748833586
     0.771313519  0.429047530  0.113045555
     0.858810264  0.340347281  0.143181501
     0.944151271  0.760995645  0.092596934
     0.930083747  0.592735616  0.109430689

  ion indices of the primitive-cell ions
   primitive index   ion index
                 1           1
                 2           2
                 3           3
                 4           4
                 5           5
                 6           6
                 7           7
                 8           8
                 9           9
                10          10
                11          11
                12          12
                13          13
                14          14
                15          15
                16          16
                17          17
                18          18
                19          19
                20          20
                21          21
                22          22
                23          23
                24          24
                25          25
                26          26
                27          27
                28          28
                29          29
                30          30
                31          31
                32          32
                33          33
                34          34
                35          35
                36          36
                37          37
                38          38
                39          39
                40          40
                41          41
                42          42
                43          43
                44          44
                45          45
                46          46
                47          47
                48          48
                49          49
                50          50
                51          51
                52          52
                53          53
                54          54
                55          55
                56          56
                57          57
                58          58
                59          59
                60          60
                61          61
                62          62
                63          63
                64          64
                65          65
                66          66
                67          67
                68          68
                69          69
                70          70
                71          71
                72          72
                73          73
                74          74
                75          75
                76          76
                77          77
                78          78
                79          79
                80          80
                81          81
                82          82
                83          83
                84          84
                85          85
                86          86
                87          87
                88          88
                89          89
                90          90
                91          91
                92          92
                93          93
                94          94
                95          95
                96          96
                97          97
                98          98
                99          99
               100         100
               101         101
               102         102
               103         103
               104         104
               105         105
               106         106
               107         107
               108         108
               109         109
               110         110
               111         111
               112         112
               113         113
               114         114
               115         115
               116         116
               117         117
               118         118
               119         119
               120         120
               121         121
               122         122
               123         123
               124         124
               125         125
               126         126
               127         127
               128         128
               129         129
               130         130
               131         131
               132         132
               133         133
               134         134
               135         135
               136         136
               137         137
               138         138
               139         139
               140         140
               141         141
               142         142
               143         143
               144         144
               145         145
               146         146
               147         147
               148         148
               149         149
               150         150
               151         151
               152         152
               153         153
               154         154
               155         155
               156         156
               157         157
               158         158
               159         159
               160         160
               161         161
               162         162
               163         163
               164         164
               165         165
               166         166
               167         167
               168         168
               169         169
               170         170
               171         171
               172         172
               173         173
               174         174
               175         175
               176         176
               177         177
               178         178
               179         179
               180         180
               181         181
               182         182
               183         183
               184         184
               185         185
               186         186
               187         187
               188         188
               189         189
               190         190
               191         191
               192         192
               193         193
               194         194
               195         195
               196         196
               197         197
               198         198
               199         199
               200         200
               201         201
               202         202
               203         203
               204         204
               205         205
               206         206
               207         207
               208         208
               209         209
               210         210
               211         211
               212         212
               213         213
               214         214
               215         215
               216         216
               217         217
               218         218
               219         219
               220         220
               221         221
               222         222
               223         223
               224         224
               225         225
               226         226
               227         227
               228         228
               229         229
               230         230
               231         231
               232         232
               233         233
               234         234
               235         235
               236         236
               237         237
               238         238
               239         239
               240         240
               241         241
               242         242
               243         243
               244         244
               245         245
               246         246

----------------------------------------------------------------------------------------

 
 
 KPOINTS: KPOINTS created by Atomic Simulation Env

Automatic generation of k-mesh.
 Grid dimensions read from file:
 generate k-points for:    2    2    1

 Generating k-lattice:

  Cartesian coordinates                     Fractional coordinates (reciprocal lattice)
     0.049307831  0.000000000  0.000000000     0.500000000  0.000000000  0.000000000
     0.000000000  0.056935779  0.000000000     0.000000000  0.500000000  0.000000000
     0.000000000  0.000000000  0.033188271     0.000000000  0.000000000  1.000000000

  Length of vectors
     0.049307831  0.056935779  0.033188271

  Shift w.r.t. Gamma in fractional coordinates (k-lattice)
     0.500000000  0.500000000  0.000000000

 
 Subroutine IBZKPT returns following result:
 ===========================================
 
 Found      2 irreducible k-points:
 
 Following reciprocal coordinates:
            Coordinates               Weight
  0.250000  0.250000  0.000000      2.000000
 -0.250000  0.250000  0.000000      2.000000
 
 Following cartesian coordinates:
            Coordinates               Weight
  0.024654  0.028468  0.000000      2.000000
 -0.024654  0.028468  0.000000      2.000000
 


--------------------------------------------------------------------------------------------------------




 Dimension of arrays:
   k-points           NKPTS =      2   k-points in BZ     NKDIM =      2   number of bands    NBANDS=    874
   number of dos      NEDOS =    301   number of ions     NIONS =    246
   non local maximal  LDIM  =      6   non local SUM 2l+1 LMDIM =     18
   total plane-waves  NPLWV = ******
   max r-space proj   IRMAX =   8746   max aug-charges    IRDMAX=  24571
   dimension x,y,z NGX =    96 NGY =   84 NGZ =  280
   dimension x,y,z NGXF=   192 NGYF=  168 NGZF=  560
   support grid    NGXF=   192 NGYF=  168 NGZF=  560
   ions per type =              96  50 100
   NGX,Y,Z   is equivalent  to a cutoff of  15.74, 15.90, 15.45 a.u.
   NGXF,Y,Z  is equivalent  to a cutoff of  31.48, 31.80, 30.90 a.u.

 SYSTEM =  unknown system                          
 POSCAR =  Cu O  H                                 

 Startparameter for this run:
   NWRITE =      2    write-flag & timer
   PREC   = accura    normal or accurate (medium, high low for compatibility)
   ISTART =      0    job   : 0-new  1-cont  2-samecut
   ICHARG =      2    charge: 1-file 2-atom 10-const
   ISPIN  =      1    spin polarized calculation?
   LNONCOLLINEAR =      F non collinear calculations
   LSORBIT =      F    spin-orbit coupling
   INIWAV =      1    electr: 0-lowe 1-rand  2-diag
   LASPH  =      T    aspherical Exc in radial PAW
 Electronic Relaxation 1
   ENCUT  =  800.0 eV  58.80 Ry    7.67 a.u.  23.39 20.25 69.49*2*pi/ulx,y,z
   ENINI  =  800.0     initial cutoff
   ENAUG  = 1000.0 eV  augmentation charge cutoff
   NELM   =    160;   NELMIN=  2; NELMDL= -5     # of ELM steps 
   EDIFF  = 0.1E-06   stopping-criterion for ELM
   LREAL  =      T    real-space projection
   NLSPLINE    = F    spline interpolate recip. space projectors
   LCOMPAT=      F    compatible to vasp.4.4
   GGA_COMPAT  = T    GGA compatible to vasp.4.4-vasp.4.6
   LMAXPAW     = -100 max onsite density
   LMAXMIX     =    2 max onsite mixed and CHGCAR
   VOSKOWN=      0    Vosko Wilk Nusair interpolation
   ROPT   =   -0.00025  -0.00025  -0.00025
 Ionic relaxation
   EDIFFG = 0.1E-05   stopping-criterion for IOM
   NSW    =      0    number of steps for IOM
   NBLOCK =      1;   KBLOCK =      1    inner block; outer block 
   IBRION =     -1    ionic relax: 0-MD 1-quasi-New 2-CG
   NFREE  =      0    steps in history (QN), initial steepest desc. (CG)
   ISIF   =      2    stress and relaxation
   IWAVPR =     10    prediction:  0-non 1-charg 2-wave 3-comb
   ISYM   =      2    0-nonsym 1-usesym 2-fastsym
   LCORR  =      T    Harris-Foulkes like correction to forces

   POTIM  = 0.5000    time-step for ionic-motion
   TEIN   =    0.0    initial temperature
   TEBEG  =    0.0;   TEEND  =   0.0 temperature during run
   SMASS  =  -3.00    Nose mass-parameter (am)
   estimated Nose-frequenzy (Omega)   =  0.10E-29 period in steps = 0.13E+47 mass=  -0.235E-26a.u.
   SCALEE = 1.0000    scale energy and forces
   NPACO  =    256;   APACO  = 10.0  distance and # of slots for P.C.
   PSTRESS=    0.0 pullay stress

  Mass of Ions in am
   POMASS =  63.55 16.00  1.00
  Ionic Valenz
   ZVAL   =  11.00  6.00  1.00
  Atomic Wigner-Seitz radii
   RWIGS  =  -1.00 -1.00 -1.00
  virtual crystal weights 
   VCA    =   1.00  1.00  1.00
   NELECT =    1456.0000    total number of electrons
   NUPDOWN=      -1.0000    fix difference up-down

 DOS related values:
   EMIN   =  10.00;   EMAX   =-10.00  energy-range for DOS
   EFERMI =   0.00;   METHOD = LEGACY      
   ISMEAR =     0;   SIGMA  =   0.10  broadening in eV -4-tet -1-fermi 0-gaus

 Electronic relaxation 2 (details)
   IALGO  =     68    algorithm
   LDIAG  =      T    sub-space diagonalisation (order eigenvalues)
   LSUBROT=      F    optimize rotation matrix (better conditioning)
   TURBO    =      0    0=normal 1=particle mesh
   IRESTART =      0    0=no restart 2=restart with 2 vectors
   NREBOOT  =      0    no. of reboots
   NMIN     =      0    reboot dimension
   EREF     =   0.00    reference energy to select bands
   IMIX   =      4    mixing-type and parameters
     AMIX     =   0.40;   BMIX     =  1.00
     AMIX_MAG =   1.60;   BMIX_MAG =  1.00
     AMIN     =   0.10
     WC   =   100.;   INIMIX=   1;  MIXPRE=   1;  MAXMIX= -45

 Intra band minimization:
   WEIMIN = 0.0000     energy-eigenvalue tresh-hold
   EBREAK =  0.29E-10  absolut break condition
   DEPER  =   0.30     relativ break condition  

   TIME   =   0.40     timestep for ELM

  volume/ion in A,a.u.               =      10.91        73.61
  Fermi-wavevector in a.u.,A,eV,Ry     =   1.335295  2.523342 24.259360  1.783013
  Thomas-Fermi vector in A             =   2.464010
 
 Write flags
   LWAVE        =      T    write WAVECAR
   LDOWNSAMPLE  =      F    k-point downsampling of WAVECAR
   LCHARG       =      T    write CHGCAR
   LVTOT        =      F    write LOCPOT, total local potential
   LVHAR        =      T    write LOCPOT, Hartree potential only
   WRT_POTENTIAL=  hartree ionic  ! write potential to hdf5 file
   LELF         =      F    write electronic localiz. function (ELF)
   LORBIT       =      0    0 simple, 1 ext, 2 COOP (PROOUT), +10 PAW based schemes


 Dipole corrections
   LMONO      =      F    monopole corrections only (constant potential shift)
   LDIPOL     =      F    correct potential (dipole corrections)
   IDIPOL     =      0    1-x, 2-y, 3-z, 4-all directions 
   EPSILON    =  1.0000000 bulk dielectric constant
   LVACPOTAV  =      F  vacuum potentials using an averaging scheme for the charge density
   VACPOTFLAT =  0.1000000 required flatness to determine vacuum potential
 Exchange correlation treatment:
   METAGGA = R2SCAN    functional components
   XC_C    = 1    coefficients multiplying the functional components
   LIBXC   =     F    Libxc                    
   VOSKOWN =     0    Vosko Wilk Nusair interpolation
   LHFCALC =     F    Hartree Fock is set to
   LHFONE  =     F    Hartree Fock one center treatment
   AEXX    =    0.0000 exact exchange contribution

 Parameters of functionals:
   R2SCAN:
     No parameter
 
 Accuracy and mixing parameters for tau-dependent meta-GGA functionals:
   LMAXTAU = 6
   LMIXTAU = T
 
 Van der Waals corrections
   IVDW    =     0    specifies the selected vdW correction

 Linear response parameters
   LEPSILON=     F    determine dielectric tensor
   LRPA    =     F    only Hartree local field effects (RPA)
   LNABLA  =     F    use nabla operator in PAW spheres
   LVEL    =     F    velocity operator in full k-point grid
   CSHIFT  =0.1000    complex shift for real part using Kramers Kronig
   OMEGAMAX=  -1.0    maximum frequency
   DEG_THRESHOLD= 0.2000000E-02 threshold for treating states as degnerate
   RTIME   =   -0.100 relaxation time in fs
  (WPLASMAI=    0.000 imaginary part of plasma frequency in eV, 0.658/RTIME)
   DFIELD  = 0.0000000 0.0000000 0.0000000 field for delta impulse in time
 
  Optional k-point grid parameters
   LKPOINTS_OPT  =     F    use optional k-point grid
   KPOINTS_OPT_MODE=     1    mode for optional k-point grid
 
 Orbital magnetization related:
   ORBITALMAG=     F  switch on orbital magnetization
   LCHIMAG   =     F  perturbation theory with respect to B field
   DQ        =  0.001000  dq finite difference perturbation B field
   LLRAUG    =     F  two centre corrections for induced B field
   LBONE     =     F  B-component reconstruction in AE one-centre
   LVGVCALC  =     T  calculate vGv susceptibility
   LVGVAPPL  =     F  apply vGv susceptibility instead of pGv for G=0

 Random number generation:
   RANDOM_GENERATOR = DEFAULT
   PCG_SEED         = not used


--------------------------------------------------------------------------------------------------------


 Static calculation
 charge density and potential will be updated during run
 non-spin polarized calculation
 RMM-DIIS sequential band-by-band and
  variant of blocked Davidson during initial phase
 perform sub-space diagonalisation
    before iterative eigenvector-optimisation
 modified Broyden-mixing scheme, WC =      100.0
 initial mixing is a Kerker type mixing with AMIX =  0.4000 and BMIX =      1.0000
 Hartree-type preconditioning will be used
 using additional bands           146
 real space projection scheme for non local part
 use partial core corrections
 calculate Harris-corrections to forces 
   (improved forces if not selfconsistent)
 use gradient corrections 
 use of overlap-Matrix (Vanderbilt PP)
 Gauss-broadening in eV      SIGMA  =   0.10


--------------------------------------------------------------------------------------------------------


  energy-cutoff  :      800.00
  volume of cell :     2683.21
      direct lattice vectors                 reciprocal lattice vectors
    10.140377178  0.000000000  0.000000000     0.098615661  0.000000000  0.000000000
     0.000000000  8.781824240  0.000000000     0.000000000  0.113871557  0.000000000
     0.000000000  0.000000000 30.131127158     0.000000000  0.000000000  0.033188271

  length of vectors
    10.140377178  8.781824240 30.131127158     0.098615661  0.113871557  0.033188271


 
 k-points in units of 2pi/SCALE and weight: KPOINTS created by Atomic Simulation Env
   0.02465392  0.02846789  0.00000000       0.500
  -0.02465392  0.02846789  0.00000000       0.500
 
 k-points in reciprocal lattice and weights: KPOINTS created by Atomic Simulation Env
   0.25000000  0.25000000  0.00000000       0.500
  -0.25000000  0.25000000  0.00000000       0.500
 
 position of ions in fractional coordinates (direct lattice) 
   0.66549300  0.11410272  0.32602464
   0.92086318  0.12841295  0.33156908
   0.17195218  0.12807020  0.32642357
   0.40977963  0.12811233  0.33205197
   0.79325452  0.37564063  0.32320530
   0.05925825  0.38003607  0.33433200
   0.30281517  0.37171662  0.33105930
   0.54500734  0.35112750  0.32751081
   0.92977902  0.62069678  0.32908195
   0.17490967  0.62403891  0.33116020
   0.42672476  0.61202660  0.32172344
   0.68371421  0.62586768  0.32674649
   0.05024517  0.88312403  0.33474353
   0.30300747  0.85730593  0.32343430
   0.54689583  0.86363150  0.33374457
   0.81519157  0.86547849  0.32244529
   0.55018664  0.20799551  0.39960669
   0.79180684  0.21529581  0.39453220
   0.04080647  0.20150483  0.39550794
   0.30592156  0.19496633  0.40122960
   0.68179318  0.46199968  0.39345690
   0.92494587  0.46821593  0.39560750
   0.17975860  0.46367245  0.40097405
   0.43527671  0.45430310  0.39614515
   0.80663272  0.71643998  0.39447910
   0.04688376  0.70240873  0.39993525
   0.30105093  0.72173843  0.39437954
   0.56657459  0.70239962  0.39704456
   0.93037072  0.95052460  0.40020740
   0.18045285  0.95710866  0.39610201
   0.43423237  0.95160638  0.39774815
   0.67286748  0.95594033  0.39595598
   0.56249979  0.04166663  0.46565135
   0.81250035  0.04166663  0.46565135
   0.06250004  0.04166663  0.46565135
   0.31250021  0.04166663  0.46565135
   0.68750007  0.29166719  0.46565135
   0.93749964  0.29166719  0.46565135
   0.18749993  0.29166719  0.46565135
   0.43750049  0.29166719  0.46565135
   0.81250035  0.54166650  0.46565135
   0.06250004  0.54166650  0.46565135
   0.31250021  0.54166650  0.46565135
   0.56249979  0.54166650  0.46565135
   0.93749964  0.79166695  0.46565135
   0.18749993  0.79166695  0.46565135
   0.43750049  0.79166695  0.46565135
   0.68750007  0.79166695  0.46565135
   0.68750007  0.12500022  0.53434775
   0.93749964  0.12500022  0.53434775
   0.18749993  0.12500022  0.53434775
   0.43750049  0.12500022  0.53434775
   0.81250035  0.37499953  0.53434775
   0.06250004  0.37499953  0.53434775
   0.31250021  0.37499953  0.53434775
   0.56249979  0.37499953  0.53434775
   0.93749964  0.62499998  0.53434775
   0.18749993  0.62499998  0.53434775
   0.43750049  0.62499998  0.53434775
   0.68750007  0.62499998  0.53434775
   0.06250004  0.87500043  0.53434775
   0.31250021  0.87500043  0.53434775
   0.56249979  0.87500043  0.53434775
   0.81250035  0.87500043  0.53434775
   0.56674716  0.20093547  0.60363822
   0.81402396  0.21719178  0.60572576
   0.07663009  0.21015907  0.60451107
   0.31418950  0.21574333  0.60307734
   0.69489526  0.45274989  0.60406303
   0.93766335  0.44741387  0.60295786
   0.18289951  0.46809523  0.60096657
   0.44215712  0.45590414  0.60552663
   0.81589273  0.70424662  0.60257620
   0.06037754  0.70535572  0.60059154
   0.30924293  0.71808429  0.60527772
   0.57081506  0.70141235  0.60107609
   0.93197421  0.96979850  0.60438828
   0.18285316  0.96329871  0.60181950
   0.43609226  0.94376746  0.60482636
   0.68566582  0.96457635  0.60210160
   0.56813271  0.04165274  0.67108011
   0.82211340  0.05090172  0.67400067
   0.05929484  0.04530892  0.66915187
   0.31873765  0.03733837  0.67070508
   0.69185000  0.29473147  0.67101373
   0.93831027  0.29898685  0.67298179
   0.19884961  0.29002175  0.67031678
   0.45155026  0.28374628  0.67101373
   0.81719544  0.53717427  0.66903239
   0.06862319  0.54911712  0.66776792
   0.32049498  0.54398720  0.67269306
   0.58475931  0.54515097  0.66837526
   0.94250044  0.79104293  0.66918174
   0.18067178  0.78854231  0.67112989
   0.44929591  0.79133217  0.67174055
   0.70829318  0.79028796  0.67042298
   0.89305554  0.04477896  0.84628430
   0.18882039  0.26007580  0.12009806
   0.79870599  0.91155776  0.09985056
   0.45971170  0.35749520  0.02412698
   0.80929633  0.63161706  0.77812223
   0.04113180  0.00147985  0.12693684
   0.76049341  0.09297123  0.02150258
   0.91959794  0.20705151  0.19453404
   0.21026437  0.11283931  0.95767410
   0.21701855  0.93084532  0.88605381
   0.42224958  0.11436348  0.09343494
   0.04408564  0.47051386  0.85296842
   0.05247339  0.81942086  0.21076311
   0.37293879  0.31974564  0.92144910
   0.08987733  0.20269365  0.81431072
   0.81289678  0.00300117  0.25627916
   0.47162052  0.37159022  0.21758960
   0.47543202  0.83046185  0.04211890
   0.60942901  0.70336183  0.83103429
   0.31424965  0.87815695  0.25103409
   0.53713682  0.62940453  0.13495147
   0.15867358  0.96036652  0.04009044
   0.56108367  0.91535765  0.14730946
   0.81851590  0.31662328  0.88328923
   0.21692586  0.62747441  0.91064300
   0.93071587  0.26465116  0.96615370
   0.67810101  0.49467968  0.06082049
   0.58812309  0.07890126  0.94436228
   0.22971138  0.81300989  0.75681868
   0.48167834  0.00414444  0.85465771
   0.27017338  0.55590158  0.13473077
   0.53184807  0.07313742  0.21780267
   0.94846768  0.88680094  0.99074953
   0.19739305  0.18932627  0.22301323
   0.94883551  0.35402895  0.74355665
   0.90529670  0.77317193  0.90187466
   0.66353843  0.67608960  0.21918397
   0.01198405  0.56407984  0.00951156
   0.44679896  0.33346033  0.82879741
   0.85020901  0.44450104  0.24486704
   0.26104059  0.61980289  0.00711145
   0.68166892  0.68911878  0.98555224
   0.57656337  0.50827822  0.91266085
   0.03716440  0.76073260  0.81360713
   0.30581999  0.13055602  0.77645286
   0.14420075  0.50834654  0.21813688
   0.75121565  0.98105584  0.77401685
   0.45822359  0.62249709  0.76747544
   0.83061309  0.44025363  0.13721159
   0.99160020  0.66792159  0.09755460
   0.85569598  0.03006047  0.81678657
   0.90221989  0.94632388  0.85620428
   0.22475791  0.22559550  0.14735327
   0.19800743  0.37183732  0.12084015
   0.02571135  0.13135312  0.82496748
   0.72916518  0.92913269  0.12047375
   0.39078724  0.41064816  0.01094569
   0.42877301  0.31232691  0.05156262
   0.81001228  0.64355763  0.74600926
   0.86921323  0.70774930  0.79209450
   0.00953187  0.17214874  0.20154540
   0.04928012  0.11168386  0.13443208
   0.04514112  0.86708294  0.18170545
   0.82737948  0.16115330  0.00925870
   0.41520645  0.03637889  0.06972955
   0.92766865  0.30583395  0.20986371
   0.19605878  0.02543765  0.93936081
   0.29303446  0.94074418  0.86709667
   0.14277674  0.92073808  0.86528791
   0.22541666  0.85686639  0.24180742
   0.33272037  0.15282132  0.08973080
   0.51194644  0.97554332  0.12801712
   0.96005699  0.45493509  0.86577578
   0.10095482  0.52356434  0.87360489
   0.94376075  0.97829674  0.12704735
   0.03239909  0.71669392  0.20782196
   0.30343053  0.25051629  0.93568355
   0.36871804  0.30785403  0.88914696
   0.68697642  0.10829902  0.00078898
   0.07740284  0.29875342  0.83468500
   0.86337222  0.91686303  0.24863358
   0.44274684  0.36319219  0.24796616
   0.55218853  0.43722579  0.22324488
   0.39820116  0.78045288  0.03078600
   0.54306461  0.77885412  0.02353619
   0.60489071  0.63090764  0.85485352
   0.67855661  0.66633080  0.81100517
   0.83780907  0.08347150  0.23307127
   0.33383965  0.98302696  0.24381464
   0.54687118  0.74478831  0.13811299
   0.59294244  0.59612216  0.11143758
   0.24293771  0.07157340  0.98589408
   0.13542692  0.98678700  0.07064820
   0.15990825  0.85171598  0.03682504
   0.55231378  0.99363296  0.17222588
   0.80543848  0.21256859  0.87473661
   0.28664614  0.54689093  0.90894044
   0.01727953  0.22187645  0.96865278
   0.24638235  0.72475716  0.90000616
   0.86631590  0.29572329  0.91025138
   0.94059815  0.36765482  0.97808156
   0.59322251  0.44782267  0.05107111
   0.69319118  0.56165893  0.03737464
   0.57856231  0.08015146  0.91273386
   0.27097316  0.90530621  0.76822549
   0.54425096  0.92424988  0.84349649
   0.53654908  0.17462659  0.95132518
   0.47063634  0.06743804  0.82830290
   0.21655605  0.62000558  0.11781537
   0.36911546  0.57211234  0.13489273
   0.58399110  0.03177962  0.24068698
   0.01998091  0.93753755  0.00934164
   0.54773012  0.18051716  0.21881956
   0.86718865  0.93470329  0.00266412
   0.22752211  0.14472847  0.79454047
   0.15776928  0.17516862  0.25242534
   0.21554820  0.29863157  0.22071362
   0.90077221  0.43617020  0.75604208
   0.92513127  0.82611993  0.93058583
   0.62241275  0.63913030  0.18979808
   0.81105169  0.78214843  0.89943532
   0.00230986  0.29115932  0.76502614
   0.59192769  0.71984133  0.23498490
   0.00364117  0.65908516  0.99164229
   0.98032152  0.60170869  0.03708557
   0.30481411  0.74472340  0.75598898
   0.79213917  0.53893814  0.23704058
   0.17799634  0.56780913  0.01630666
   0.93150578  0.49651871  0.25781180
   0.44285236  0.43963189  0.81726116
   0.24940295  0.61369709  0.97646198
   0.76731860  0.73846274  0.98015251
   0.64782008  0.64294159  0.95968531
   0.78020964  0.96070543  0.07207530
   0.64565843  0.44919141  0.89817748
   0.09133132  0.75510507  0.78484618
   0.50698213  0.43599370  0.92206308
   0.02427927  0.64808289  0.82241862
   0.27226502  0.13971926  0.74552472
   0.40950942  0.27118284  0.80638868
   0.17227860  0.57558314  0.23995817
   0.19111123  0.53678369  0.19094009
   0.73210097  0.05181771  0.74923185
   0.75677560  0.87921482  0.76079796
   0.50441220  0.67736154  0.79234009
   0.52583350  0.57230478  0.74883359
   0.77131352  0.42904753  0.11304556
   0.85881026  0.34034728  0.14318150
   0.94415127  0.76099564  0.09259693
   0.93008375  0.59273562  0.10943069
 
 position of ions in cartesian coordinates  (Angst):
   6.74835000  1.00203000  9.82349000
   9.33790000  1.12770000  9.99055000
   1.74366000  1.12469000  9.83551000
   4.15532000  1.12506000 10.00510000
   8.04390000  3.29881000  9.73854000
   0.60090100  3.33741000 10.07380000
   3.07066000  3.26435000  9.97519000
   5.52658000  3.08354000  9.86827000
   9.42831000  5.45085000  9.91561000
   1.77365000  5.48020000  9.97823000
   4.32715000  5.37471000  9.69389000
   6.93312000  5.49626000  9.84524000
   0.50950500  7.75544000 10.08620000
   3.07261000  7.52871000  9.74544000
   5.54573000  7.58426000 10.05610000
   8.26635000  7.60048000  9.71564000
   5.57910000  1.82658000 12.04060000
   8.02922000  1.89069000 11.88770000
   0.41379300  1.76958000 11.91710000
   3.10216000  1.71216000 12.08950000
   6.91364000  4.05720000 11.85530000
   9.37930000  4.11179000 11.92010000
   1.82282000  4.07189000 12.08180000
   4.41387000  3.98961000 11.93630000
   8.17956000  6.29165000 11.88610000
[...]
      0.63377      0.36591     14.03060         0.042797      0.050903      0.006753
      3.16887      0.36591     14.03060        -0.053961     -0.342123      0.399957
      6.97151      2.56137     14.03060        -0.024501      0.093726     -0.036704
      9.50660      2.56137     14.03060        -0.146939      0.029647     -0.159834
      1.90132      2.56137     14.03060        -0.264522     -0.119309      0.142591
      4.43642      2.56137     14.03060        -0.097077      0.112795      0.330427
      8.23906      4.75682     14.03060        -0.124695      0.037130     -0.165669
      0.63377      4.75682     14.03060        -0.238508     -0.085927      0.439742
      3.16887      4.75682     14.03060         0.111370      0.159720     -0.086348
      5.70396      4.75682     14.03060        -0.021180     -0.094712     -0.094086
      9.50660      6.95228     14.03060        -0.204020     -0.124113      0.471069
      1.90132      6.95228     14.03060        -0.017343     -0.028510     -0.012550
      4.43642      6.95228     14.03060        -0.030531     -0.166367     -0.068415
      6.97151      6.95228     14.03060         0.007093     -0.001121     -0.023188
      6.97151      1.09773     16.10050         0.113331      0.124419      0.016702
      9.50660      1.09773     16.10050         0.043782      0.116248      0.186353
      1.90132      1.09773     16.10050         0.041131      0.050384     -0.051833
      4.43642      1.09773     16.10050         0.015672     -0.073770      0.199347
      8.23906      3.29318     16.10050        -0.027842     -0.031290     -0.121449
      0.63377      3.29318     16.10050        -0.021203     -0.070722     -0.128225
      3.16887      3.29318     16.10050         0.069335      0.114491      0.028190
      5.70396      3.29318     16.10050         0.012749      0.018878      0.189632
      9.50660      5.48864     16.10050        -0.051370     -0.111550     -0.125073
      1.90132      5.48864     16.10050         0.149092      0.164124     -0.221825
      4.43642      5.48864     16.10050        -0.115578     -0.001182      0.179658
      6.97151      5.48864     16.10050         0.116506     -0.112677     -0.161872
      0.63377      7.68410     16.10050        -0.101961      0.105555     -0.036046
      3.16887      7.68410     16.10050         0.017107      0.006176      0.010917
      5.70396      7.68410     16.10050        -0.060073      0.045745     -0.011879
      8.23906      7.68410     16.10050         0.027737      0.044881      0.056242
      5.74703      1.76458     18.18830        -0.331493      0.341786     -0.308401
      8.25451      1.90734     18.25120         0.250094     -0.786263     -0.386357
      0.77706      1.84558     18.21460        -0.913656      0.268647     -0.223137
      3.18600      1.89462     18.17140         0.449607     -0.388773     -0.119651
      7.04650      3.97597     18.20110        -0.416726      0.146554     -0.783374
      9.50826      3.92911     18.16780         0.378499      0.512508     -0.163491
      1.85467      4.11073     18.10780         0.677891     -0.449056      0.416837
      4.48364      4.00367     18.24520        -0.142165      0.218994     -0.298556
      8.27346      6.18457     18.15630         0.032775      0.226016     -0.305648
      0.61225      6.19431     18.09650        -0.029435      0.516110      0.216595
      3.13584      6.30609     18.23770         0.127574     -0.728269     -0.126613
      5.78828      6.15968     18.11110        -0.351933      0.352972      0.329080
      9.45057      8.51660     18.21090         0.122127     -0.448126     -0.343792
      1.85420      8.45952     18.13350         0.269656     -0.346884      0.275898
      4.42214      8.28800     18.22410         0.287087      0.838503     -0.373288
      6.95291      8.47074     18.14200         0.313429     -0.545686      0.259032
      5.76108      0.36579     20.22040         0.249026     -0.300733      0.088477
      8.33654      0.44701     20.30840        -0.543296     -0.427538     -0.307735
      0.60127      0.39790     20.16230         0.571329     -0.088471      0.316007
      3.23212      0.32790     20.20910        -0.217851      0.104305     -0.230911
      7.01562      2.58828     20.21840        -0.120535     -0.334233      0.322534
      9.51482      2.62565     20.27770         0.510461     -0.146802      0.488710
      2.01641      2.54692     20.19740        -0.015843      0.233130      0.076571
      4.57889      2.49181     20.21840        -0.505494      0.409680      0.138236
      8.28667      4.71737     20.15870         0.423609      0.534545      0.146099
      0.69587      4.82225     20.12060        -0.039844     -0.511972      0.254270
      3.24994      4.77720     20.26900         0.031315     -0.211114     -0.365899
      5.92968      4.78742     20.13890        -1.011516      0.029820      0.423416
      9.55731      6.94680     20.16320        -0.058035      0.111186      0.110339
      1.83208      6.92484     20.22190         0.663963      0.498072      0.230848
      4.55603      6.94934     20.24030         0.091630     -0.258783     -0.092317
      7.18236      6.94017     20.20060        -0.746277      0.353846     -0.019694
      9.05592      0.39324     25.49950        -0.356839      2.295346     -0.888783
      1.91471      2.28394      3.61869        -0.546418      0.503080     -0.900168
      8.09918      8.00514      3.00861         1.485003     -0.611835     -0.126670
      4.66165      3.13946      0.72697         1.681964     -1.257575      0.857785
      8.20657      5.54675     23.44570        -0.039081      0.140362      0.585079
      0.41709      0.01300      3.82475        -0.799898      0.656058      0.645481
      7.71169      0.81646      0.64790        -0.141607      0.041733     -0.326090
      9.32507      1.81829      5.86153         1.146034     -0.012739      0.741467
      2.13216      0.99093     28.85580         0.094415      0.582358      1.528433
      2.20065      8.17452     26.69780        -0.964966     -0.444632     -0.595416
      4.28177      1.00432      2.81530        -0.906876     -0.645485     -1.667711
      0.44705      4.13197     25.70090         0.988442      0.031309     -1.129547
      0.53210      7.19601      6.35053         0.340045      2.276064      0.551944
      3.78174      2.80795     27.76430        -1.151475     -0.270433      0.241178
      0.91139      1.78002     24.53610         0.218730      2.406861      0.577947
      8.24308      0.02636      7.72198        -0.626837      2.012195     -0.631702
      4.78241      3.26324      6.55622         2.077161      1.292739      0.382288
      4.82106      7.29297      1.26909         0.754740     -0.521813     -0.751620
      6.17984      6.17680     25.04000         0.194720      0.619300      0.189807
      3.18661      7.71182      7.56394         0.541838     -0.261034      0.757485
      5.44677      5.52732      4.06624        -0.574744      0.784478      1.389612
      1.60901      8.43377      1.20797         0.049721      0.609278     -0.209247
      5.68960      8.03851      4.43860         1.103354      0.722071      1.765228
      8.30006      2.78053     26.61450        -0.287266      0.609400      0.089866
      2.19971      5.51037     27.43870         0.416603     -2.221245      0.398504
      9.43781      2.32412     29.11130        -0.307010      0.706523      0.330760
      6.87620      4.34419      1.83259        -1.313907     -1.581297      1.478402
      5.96379      0.69290     28.45470        -0.977043      2.019811      0.902622
      2.32936      7.13971     22.80380         0.417088      0.150366     -0.266331
      4.88440      0.03640     25.75180         0.882962     -0.910948     -1.140273
      2.73966      4.88183      4.05959         1.228672     -1.756003      1.593612
      5.39314      0.64228      6.56264        -0.772932     -0.202122     -0.526903
      9.61782      7.78773     29.85240         0.146489      0.514349      0.832079
      2.00164      1.66263      6.71964        -0.107051     -0.159265     -0.106362
      9.62155      3.10902     22.40420         1.201445     -1.807275     -0.549309
      9.18005      6.78986     27.17450         0.170743      0.609702      1.082753
      6.72853      5.93730      6.60426         0.021125     -1.348804     -1.889876
      0.12152      4.95365      0.28659        -0.320408      0.578049     -1.952270
      4.53071      2.92839     24.97260         0.486682      1.965279      0.901963
      8.62144      3.90353      7.37812         0.266306      2.844417      0.652653
      2.64705      5.44300      0.21428        -0.040082     -0.518798      2.157832
      6.91238      6.05172     29.69580         1.238779      1.186140      1.640225
      5.84657      4.46361     27.49950         0.213267      0.247707     -0.120482
      0.37686      6.68062     24.51490        -0.102705     -2.134550     -1.136583
      3.10113      1.14652     23.39540         0.644847     -0.660830     -1.338108
      1.46225      4.46421      6.57271        -0.686115     -1.349186     -1.571516
      7.61761      8.61546     23.32200        -0.230710      0.032388     -0.624166
      4.64656      5.46666     23.12490         0.124537     -0.100693     -0.190187
      8.42273      3.86623      4.13434         0.133966      1.289898      0.211818
     10.05520      5.86557      2.93943         0.631557     -0.426724     -0.408592
      8.67708      0.26399     24.61070        -0.425992      0.029092     -0.218903
      9.14885      8.31045     25.79840         0.535035     -2.749441      1.282723
      2.27913      1.98114      4.43992         0.459364     -0.163720      0.813528
      2.00787      3.26541      3.64105         0.307504     -0.388464      0.208525
      0.26072      1.15352     24.85720        -0.713977     -0.658783      0.582625
      7.39401      8.15948      3.63001        -1.246336      0.063262      0.353051
      3.96273      3.60624      0.32981        -1.602577      1.284499     -0.548329
      4.34792      2.74280      1.55364        -0.061227     -0.124383     -0.210954
      8.21383      5.65161     22.47810         0.097939      0.352357     -0.185478
      8.81415      6.21533     23.86670         0.291450     -0.477886     -0.668343
      0.09666      1.51178      6.07279        -0.253502     -0.252843     -0.452256
      0.49972      0.98079      4.05059        -0.112378     -1.180077     -0.525271
      0.45775      7.61457      5.47499         0.180067     -0.078293     -0.115181
      8.38994      1.41522      0.27898        -0.144830      0.018323      0.000538
      4.21035      0.31947      2.10103         0.973105      0.148257      0.529595
      9.40691      2.68578      6.32343        -0.976897     -0.016113     -0.240293
      1.98811      0.22339     28.30400         0.113102     -0.447641     -0.902084
      2.97148      8.26145     26.12660         0.676297      0.359528     -0.014210
      1.44781      8.08576     26.07210         0.414984     -0.182093      0.440129
      2.28581      7.52485      7.28593        -0.674692      0.147003     -0.559436
      3.37391      1.34205      2.70369        -0.022428      0.423931      0.980231
      5.19133      8.56705      3.85730        -1.404576      0.765344     -2.313516
      9.73534      3.99516     26.08680        -1.234660     -0.337407      0.701689
      1.02372      4.59785     26.32270         0.149478      0.356547      0.567158
      9.57009      8.59123      3.82808         1.056694      0.402864     -0.553352
      0.32854      6.29388      6.26191        -0.418028     -1.976076     -0.472659
      3.07690      2.19999     28.19320         1.066001      0.485969     -0.732314
      3.73894      2.70352     26.79100         0.139918     -0.195111      0.216354
      6.96620      0.95106      0.02377         0.362929     -0.427481      0.247164
      0.78489      2.62360     25.15000         0.383735     -1.405481     -1.305912
      8.75492      8.05173      7.49161         0.932696     -1.187594     -0.791160
      4.48962      3.18949      7.47150        -0.541097     -0.211860      0.439588
      5.59940      3.83964      6.72662        -1.437867     -0.812809     -0.720967
      4.03791      6.85380      0.92762        -0.519048     -0.179712      0.111281
      5.50688      6.83976      0.70917        -0.325652      0.827816      0.638304
      6.13382      5.54052     25.75770        -0.339766     -0.311265      0.567682
      6.88082      5.85160     24.43650         0.266051      0.016738     -0.028088
      8.49570      0.73303      7.02270        -0.084840     -0.735638      0.849761
      3.38526      8.63277      7.34641        -0.046210      0.148523     -0.357339
      5.54548      6.54060      4.16150        -0.257571     -1.007333     -0.275493
      6.01266      5.23504      3.35774         0.554948     -0.202167     -0.868490
      2.46348      0.62854     29.70610        -0.367807      0.310378     -0.493245
      1.37328      8.66579      2.12871        -0.267473     -0.394268      0.146357
      1.62153      7.47962      1.10958         0.386306     -0.475505      0.438343
      5.60067      8.72591      5.18936         0.516641     -1.437130      0.342247
      8.16745      1.86674     26.35680        -0.145662     -0.477011     -0.849524
      2.90670      4.80270     27.38740        -0.708991      1.235433     -0.022619
      0.17522      1.94848     29.18660         0.678675     -0.376090     -0.133378
      2.49841      6.36469     27.11820         0.286837      0.542118     -0.273732
      8.78477      2.59699     27.42690         0.201850      0.314162      0.864163
      9.53802      3.22868     29.47070         0.000126     -0.176645      0.022995
      6.01550      3.93270      1.53883         0.792016      0.148623      0.127849
      7.02922      4.93239      1.12614         0.573231      1.434461     -1.579298
      5.86684      0.70388     27.50170        -0.052769     -0.349710     -0.639025
      2.74777      7.95024     23.14750        -0.314169      0.376837     -0.087337
      5.51891      8.11660     25.41550        -0.926526      0.782338      0.602166
      5.44081      1.53354     28.66450         0.800264     -1.584404     -0.204171
      4.77243      0.59223     24.95770         0.064819     -0.158382      0.478799
      2.19596      5.44478      3.54991        -0.316072      1.433771     -1.010091
      3.74297      5.02419      4.06447        -1.046195      0.591186     -0.539554
      5.92189      0.27908      7.25217         0.919990     -0.688442      0.872410
      0.20261      8.23329      0.28147        -0.774563     -0.557335     -0.829296
      5.55419      1.58527      6.59328        -0.319300      1.026786     -0.121827
      8.79362      8.20840      0.08027         0.350081      0.081414     -0.373415
      2.30716      1.27098     23.94040        -0.821451      0.423960      0.427044
      1.59984      1.53830      7.60586         0.252323      0.298267     -0.237990
      2.18574      2.62253      6.65035        -0.325087     -0.170343      0.359700
      9.13417      3.83037     22.78040        -0.256901      0.541024      1.011067
      9.38118      7.25484     28.03960        -0.113391     -0.467957     -0.955915
      6.31150      5.61273      5.71883         0.704284      0.696386      1.185533
      8.22437      6.86869     27.10100        -0.178481     -0.042957     -0.005721
      0.02342      2.55691     23.05110        -0.756500      0.996989     -0.171849
      6.00237      6.32152      7.08036        -0.612769      0.342214      0.490151
      0.03692      5.78797     29.87930         0.082568     -1.007570      0.362129
      9.94083      5.28410      1.11743        -0.323854      0.058479      1.640315
      3.09093      6.54003     22.77880         0.184701     -0.602893     -0.050098
      8.03259      4.73286      7.14230         0.854540     -1.731698      0.262342
      1.80495      4.98640      0.49134         0.510545      0.594312      0.005443
      9.44582      4.36034      7.76816        -1.338161     -0.935628     -0.746398
      4.49069      3.86077     24.62500        -0.016631     -1.324212      0.136104
      2.52904      5.38938     29.42190        -0.017197      0.295907     -2.268941
      7.78090      6.48505     29.53310        -1.049637     -0.638391     -0.159660
      6.56914      5.64620     28.91640        -0.249845     -0.753625     -1.466112
      7.91162      8.43675      2.17171        -0.463377      0.600068     -0.186136
      6.54722      3.94472     27.06310        -0.150867     -0.344581      0.408557
      0.92613      6.63120     23.64830        -0.671715      0.325762      1.750384
      5.14099      3.82882     27.78280         0.467130      0.207150     -0.316911
      0.24620      5.69135     24.78040         0.681049      1.963032     -0.229980
      2.76087      1.22699     22.46350         0.537539      0.123511      0.840407
      4.15258      2.38148     24.29740        -0.711503     -0.429701     -1.150071
      1.74697      5.05467      7.23021         0.874279      1.194481      1.541081
      1.93794      4.71394      5.75324         0.116627      0.066624     -0.126117
      7.42378      0.45505     22.57520         0.137080     -0.689985      0.511713
      7.67399      7.72111     22.92370        -0.121254      0.809205      0.015887
      5.11493      5.94847     23.87410        -0.086905     -0.665302     -0.619595
      5.33215      5.02588     22.56320        -0.645914      0.575782      0.598731
      7.82141      3.76782      3.40619        -0.742422      0.158987     -0.988492
      8.70866      2.98887      4.31422         0.621786     -1.223713      0.537996
      9.57405      6.68293      2.79005        -0.572035      0.171322      0.334970
      9.43140      5.20530      3.29727        -0.107384      0.049977      0.263687
 -----------------------------------------------------------------------------------
    total drift:                               -0.003419     -0.008951      0.013001


--------------------------------------------------------------------------------------------------------



  FREE ENERGIE OF THE ION-ELECTRON SYSTEM (eV)
  ---------------------------------------------------
  free  energy   TOTEN  =     -1811.95299129 eV

  energy  without entropy=    -1811.74135481  energy(sigma->0) =    -1811.84717305
 


--------------------------------------------------------------------------------------------------------


    POTLOK:  cpu time     11.9615: real time     11.9835


--------------------------------------------------------------------------------------------------------


 writing wavefunctions
     LOOP+:  cpu time    707.3850: real time    708.5401
    4ORBIT:  cpu time      0.0000: real time      0.0000

 total amount of memory used by VASP MPI-rank0  3314038. kBytes
=======================================================================

   base      :      30000. kBytes
   nonlr-proj:     188959. kBytes
   fftplans  :     312780. kBytes
   grid      :     814785. kBytes
   one-center:       3825. kBytes
   wavefun   :    1963689. kBytes
 
  
  
 General timing and accounting informations for this job:
 ========================================================
  
                  Total CPU time used (sec):      774.974
                            User time (sec):      755.510
                          System time (sec):       19.465
                         Elapsed time (sec):      776.960
  
                   Maximum memory used (kb):     4919736.
                   Average memory used (kb):          N/A
  
                          Minor page faults:      4585493
                          Major page faults:         3972
                 Voluntary context switches:        22736
