246
Lattice="10.140377178 0.0 0.0 0.0 8.78182424 0.0 0.0 0.0 30.131127158" Properties=species:S:1:pos:R:3:initial_charges:R:1:forces:R:3 stress="0.00286954630364308 0.0012569650398433776 0.002707541692771654 0.0012569650398433776 0.0012787666312200879 0.0005436541693918095 0.002707541692771654 0.0005436541693918095 -0.00042744975248611497" free_energy=-1797.71374441 energy=-1813.015848502151 pbc="T T T"
Cu       7.00278000       1.18330000       9.76696000      -0.07275600      -0.29733700      -0.32809100       0.46663600
Cu       9.54539000       1.22935000       9.82430000      -0.07349600      -0.77682500      -0.50377800      -0.21662700
Cu       1.72310000       1.06762000       9.93655000      -0.14441000       1.24260900       0.62617800      -0.47978300
Cu       4.41783000       1.12399000       9.75602000      -0.11475400      -0.26865300       0.22172600       0.10971100
Cu       8.20128000       3.32020000       9.94534000      -0.06715800       0.04614400       0.33804800      -0.21246900
Cu       0.55595000       3.38634000       9.88528000      -0.01599400       0.64501800      -0.19773600      -0.08822300
Cu       3.15903000       3.35296000       9.68262000      -0.10392000      -0.00948400      -0.10412100       0.93582500
Cu       5.73231000       3.50233000       9.87239000      -0.09412300      -0.57713200      -0.84625500      -0.24695100
Cu       9.60144000       5.51325000       9.92491000      -0.10631700      -1.50664500       0.39213100      -0.35282100
Cu       1.76996000       5.61187000       9.90614000      -0.06820300       1.20221200      -0.40418400      -0.22403000
Cu       4.41500000       5.58135000       9.96801000      -0.11018700      -0.36024700      -0.33235600      -0.81917700
Cu       6.90816000       5.52546000       9.59537000      -0.05905600       0.51989500       0.51978200       0.80371200
Cu       0.62597000       7.70243000       9.88492000      -0.09019300      -0.37126900       0.18112600      -0.13288400
Cu       3.13523000       7.79481000       9.96364000      -0.10989400      -0.04704100      -0.16179600      -0.27280400
Cu       5.62162000       7.73693000       9.81621000      -0.14450800       0.48323100       0.22994800       0.05848900
Cu       8.22324000       7.73468000       9.77857000      -0.08881000      -0.16076300      -0.04900900       0.36438600
Cu       5.55739000       1.85807000      11.75190000      -0.00715700       0.83004900      -0.40789700       0.62723200
Cu       8.31000000       1.77182000      11.90130000      -0.00546100      -1.14304500       0.50512200       0.24889200
Cu       0.55921000       1.93761000      11.87170000       0.00270400       0.61578300      -0.23638800       0.70050200
Cu       3.09745000       1.84144000      11.95340000      -0.00232600      -0.01656700      -0.13131300      -0.36228100
Cu       6.91986000       4.02674000      11.91150000      -0.00213600       0.25135100       0.03293300       0.33224200
Cu       9.54248000       4.06286000      11.89500000      -0.00952200      -0.63399800      -0.05709900       0.64563900
Cu       1.91477000       4.10219000      11.96000000       0.00057600      -0.15483700      -0.53880600      -0.30975500
Cu       4.37970000       3.94952000      11.96130000      -0.00581300       0.07004500       0.58183400      -0.20510300
Cu       8.18268000       6.21198000      11.94130000       0.00401800       0.15513800      -0.03129200      -0.32720500
Cu       0.56157000       6.20157000      11.95420000      -0.00021100       0.24256000       0.60288900       0.36310300
Cu       3.12561000       6.17738000      11.86780000      -0.01266400       0.03588000       0.55625300       0.78866100
Cu       5.68759000       6.24686000      11.83740000       0.00304400       0.10330700      -0.34104700       0.60804700
Cu       9.48122000       8.50212000      11.85620000       0.00714300      -0.08094200      -0.70525900       0.27995700
Cu       1.78589000       8.47792000      11.94220000      -0.01262400       0.47672500      -0.36675900       0.39457300
Cu       4.41501000       8.38154000      12.01350000      -0.00689400      -0.13880700       0.29660700      -0.41859100
Cu       6.94545000       8.32585000      11.97960000      -0.01341300       0.04203900       0.80178300      -0.45607300
Cu       5.70396000       0.36591000      14.03060000       0.00562400       0.02238800       0.13519800      -0.15156700
Cu       8.23906000       0.36591000      14.03060000      -0.04925500       0.01032000      -0.00327700      -0.14157700
Cu       0.63377000       0.36591000      14.03060000      -0.01871600      -0.12206500       0.09469500      -0.12533100
Cu       3.16887000       0.36591000      14.03060000      -0.02254000      -0.08135700      -0.00383000      -0.03469100
Cu       6.97151000       2.56137000      14.03060000       0.00572600      -0.04775900      -0.08217800      -0.36804400
Cu       9.50660000       2.56137000      14.03060000      -0.04570800      -0.04157800       0.01714800      -0.15862700
Cu       1.90132000       2.56137000      14.03060000      -0.01464500      -0.10064400       0.00504300      -0.09787600
Cu       4.43642000       2.56137000      14.03060000      -0.01537500       0.04994100      -0.11974700      -0.08197700
Cu       8.23906000       4.75682000      14.03060000       0.00797900      -0.00847600      -0.07053500      -0.19141400
Cu       0.63377000       4.75682000      14.03060000      -0.02009300      -0.03412600      -0.03006800       0.02451600
Cu       3.16887000       4.75682000      14.03060000      -0.04573300       0.03934800       0.05276600      -0.01334200
Cu       5.70396000       4.75682000      14.03060000      -0.02294000      -0.03032900       0.03587800      -0.24307100
Cu       9.50660000       6.95228000      14.03060000      -0.00670900      -0.04058700       0.08354200      -0.18281300
Cu       1.90132000       6.95228000      14.03060000       0.00930900       0.02091600      -0.01689100      -0.22376300
Cu       4.43642000       6.95228000      14.03060000      -0.01621500      -0.01864300      -0.18074800      -0.10084200
Cu       6.97151000       6.95228000      14.03060000      -0.04118500      -0.09122400      -0.13177600       0.00750800
Cu       6.97151000       1.09773000      16.10050000      -0.01416100      -0.04483700      -0.11494500      -0.07648100
Cu       9.50660000       1.09773000      16.10050000      -0.01638300       0.14571100      -0.02268400      -0.00139700
Cu       1.90132000       1.09773000      16.10050000      -0.04625700       0.03190800       0.01244900      -0.10264900
Cu       4.43642000       1.09773000      16.10050000       0.00731700       0.02794800       0.14501000       0.07759200
Cu       8.23906000       3.29318000      16.10050000       0.01386700       0.07247500       0.09151600       0.18366800
Cu       0.63377000       3.29318000      16.10050000      -0.02121300       0.04417000       0.07049900       0.20090800
Cu       3.16887000       3.29318000      16.10050000      -0.01661600      -0.13240000      -0.09103400       0.02127600
Cu       5.70396000       3.29318000      16.10050000      -0.04325600       0.10178400      -0.08540100      -0.20362800
Cu       9.50660000       5.48864000      16.10050000       0.00871800       0.00251400      -0.17057600       0.08182000
Cu       1.90132000       5.48864000      16.10050000      -0.01841600       0.02142500      -0.02361300       0.06520100
Cu       4.43642000       5.48864000      16.10050000      -0.03808500       0.15123100      -0.06228400      -0.22192700
Cu       6.97151000       5.48864000      16.10050000      -0.02150800      -0.08788400      -0.00396400      -0.12229000
Cu       0.63377000       7.68410000      16.10050000       0.01182500      -0.00056900       0.14440400       0.03171600
Cu       3.16887000       7.68410000      16.10050000      -0.00856000       0.03433800       0.04005600       0.00204000
Cu       5.70396000       7.68410000      16.10050000      -0.00662400       0.07582200       0.05334300       0.08755500
Cu       8.23906000       7.68410000      16.10050000      -0.03564700      -0.01875800       0.02612900      -0.01948200
Cu       5.81984000       1.83274000      18.20220000      -0.01501200      -0.37508900      -0.21744800      -0.12641900
Cu       8.26184000       1.73964000      18.11560000      -0.00166100       0.28058100       0.59748500       0.50066900
Cu       0.71505000       1.81271000      18.18020000      -0.00541700      -0.36070000      -0.01266800      -0.18033500
Cu       3.13440000       1.73132000      18.22380000       0.00028000       0.65758900       0.83882000      -0.14759000
Cu       6.92943000       4.04269000      18.17120000      -0.00477200       0.45397200      -0.20300200       0.17395200
Cu       9.61992000       3.92377000      18.32190000      -0.00800200      -0.39099400       0.30959700      -1.01142800
Cu       1.98701000       4.10003000      18.25390000      -0.00137200      -0.18772300      -0.41009000      -0.44669700
Cu       4.45738000       3.93641000      18.09650000      -0.00595800      -0.02139200       0.25149500       0.57833300
Cu       8.19382000       6.17621000      18.12780000      -0.01040400       0.42248900      -0.06929000       0.36291100
Cu       0.62716000       6.25607000      18.11980000      -0.00433100       0.26225800      -0.14994600       0.43707000
Cu       3.31269000       6.19616000      18.12760000      -0.00070200      -0.80901000       0.39481200       0.50782800
Cu       5.69345000       6.26790000      18.19260000       0.00638900       0.29214400      -0.30606300       0.06794500
Cu       9.43141000       8.39693000      18.21330000       0.00512700       0.79848300      -0.02974700      -0.14967500
Cu       1.98009000       8.46041000      18.18530000      -0.01243900      -0.63969600      -0.93254600       0.12131100
Cu       4.47462000       8.46166000      18.15890000       0.01107800       0.09402000      -0.27427700       0.06736100
Cu       7.05844000       8.37863000      18.25180000      -0.00527300      -0.48430700       0.20251400      -0.25544300
Cu       5.70305000       0.26370000      20.18820000      -0.08442300       0.35383400       0.57491700       0.32558700
Cu       8.41105000       0.33973000      20.53940000      -0.08514200      -0.89346000      -0.17516100      -0.73952500
Cu       0.58034000       0.37985000      20.22730000      -0.12866100       1.09846500      -0.71554500      -0.01272500
Cu       3.19052000       0.23593000      20.28020000      -0.10227400      -0.00706300       0.16277500      -0.40091100
Cu       7.16305000       2.45484000      20.24500000      -0.06782000      -0.37637000       0.21350800      -0.18810100
Cu       9.66230000       2.45956000      20.26960000      -0.10457000      -0.64880400       0.50976100       0.11162700
Cu       1.94947000       2.53583000      20.24830000      -0.00894200       0.32273000       0.11604300      -0.16308400
Cu       4.52073000       2.51147000      20.17420000      -0.04800100      -0.00169500       0.07956700      -0.10964400
Cu       8.32629000       4.68882000      20.17210000      -0.11176300      -0.24382500       0.24371900       0.33935200
Cu       0.72408000       4.71429000      20.25710000      -0.11362200      -0.16672300       0.29690700       0.17718100
Cu       3.24743000       4.81469000      20.22980000      -0.11304600       0.17055200      -0.35540900      -0.04299500
Cu       5.73839000       4.70739000      20.27900000      -0.11981700       0.20268600       0.05223500      -0.38507800
Cu       9.56308000       6.93272000      20.20000000      -0.12576900      -0.10160100      -0.33498500       0.00887500
Cu       1.94232000       6.88870000      20.36170000      -0.07332000      -0.09609300       0.19933200      -0.58403500
Cu       4.51975000       6.95295000      20.35130000      -0.06308700      -0.29687300      -0.36455900      -0.23480900
Cu       6.97907000       6.96171000      20.24970000      -0.11976900       0.43604800      -0.39993800       0.07100500
O        1.12447000       3.75669000       7.29917000      -1.33480100      -1.89061300      -0.42756700      -0.22047700
O        8.15636000       4.16636000       6.60574000      -1.38321900      -0.64287600      -0.05025300      -0.43161000
O        1.26870000       7.89654000       3.82762000      -1.29222100      -2.44789900       0.98496300       1.72111600
O        1.47965000       2.86030000      25.36920000      -1.34715900      -0.74980300       0.28765600       0.02575400
O        1.97595000       3.15331000       1.26829000      -1.36222000      -0.12411900      -0.22365800      -2.10485100
O        3.47790000       2.22872000      27.61100000      -1.29073500      -0.44551400       1.95974100       0.21014800
O        0.89618000       5.26197000      28.88900000      -1.27293200      -1.47135500       1.34435200      -0.41666100
O        4.27708000       4.16085000       6.38876000      -1.34388500       0.03818800       1.03289600      -0.31303900
O        0.29157000       6.50824000      23.42700000      -1.34411600       0.65580600      -1.36991700      -0.13220700
O        8.09815000       7.98940000      23.38240000      -1.28427200      -0.91751600       0.57592000      -0.17150700
O        6.37439000       3.51977000      28.36770000      -1.37464200       0.18623600      -0.37414900      -0.34012500
O        5.98174000       0.95211000       3.57056000      -1.31200200      -0.67344300       0.58070900      -1.26245100
O        4.10061000       1.93392000       4.93239000      -1.38434900       0.78199800      -0.91626600       0.44933500
O        4.52865000       4.23782000      23.30630000      -1.35720200      -0.39582100      -0.81872600       1.23263900
O        4.09741000       7.16448000       2.88921000      -1.26887200       1.88954100       1.30712600       1.55175400
O        0.08247000       4.79109000       4.48033000      -1.29292400      -0.06273000      -0.48168100       0.40814000
O        8.60842000       6.27127000       1.23300000      -1.33971700       0.36681200       0.41838900      -0.19247500
O        8.34981000       7.99351000       3.54484000      -1.24743400       0.32535000       3.03414600      -1.44970700
O        1.90795000       7.78727000      27.19770000      -1.34808100       0.45842400      -1.96039800       0.70240500
O        7.13027000       7.50071000      29.20340000      -1.33289000      -0.09080100       0.60529500       0.04414500
O        2.64922000       1.77535000      22.69670000      -1.31371200      -2.37321600      -0.18757600       0.70003900
O        5.65655000       1.67412000      23.24460000      -1.31900900       1.65175700       2.21037300       0.29952300
O        2.78717000       7.56426000       0.44629000      -1.31809800      -0.53501200       0.37499700       0.58098200
O        4.79298000       6.15092000      29.69520000      -1.37125700       0.22253500       0.31530100       1.05652900
O        2.53256000       5.03751000      26.47260000      -1.33395600      -0.29128000      -0.87936200       1.01157200
O        5.61831000       2.40893000       0.85269000      -1.32102400      -1.00051400       1.33874500       0.95454500
O        7.44998000       1.23922000      26.51890000      -1.27931100      -0.41133900       0.69596400      -0.35142400
O        9.07838000       4.61627000      24.94890000      -1.31868800       0.13575600       0.67748400      -0.99073600
O        4.80758000       8.54255000      27.23710000      -1.32345100       0.86936800      -0.71488600       1.24784000
O        4.48651000       6.54288000       5.49654000      -1.31602900       0.94071700       1.43469400       0.94048200
O        9.82602000       7.70922000       6.54340000      -1.32184600       0.50185200      -0.17663200      -0.03690300
O        1.44303000       1.08591000      29.67060000      -1.35950800      -1.39244700       2.05213400      -0.27633200
O        1.23788000       5.97225000       1.94320000      -1.33732600      -0.58938500      -0.01656600      -0.06110800
O        7.33254000       1.60753000       6.69009000      -1.34117600      -0.47510700       0.24105800      -0.36167500
O        8.42103000       2.13181000      23.44120000      -1.36246600      -0.50346100      -0.82044300       0.25309300
O        7.08987000       6.74215000       6.52014000      -1.35810900      -0.53475800       1.96872200      -0.68911700
O        7.13278000       3.48606000       3.95113000      -1.29099200       0.26060600       0.22100600       1.94171700
O        9.78215000       1.44619000       5.49770000      -1.32077800       0.10216500      -0.94859100       1.13266200
O        8.97527000       6.55233000      27.52880000      -1.30574100      -1.56514800       1.02991200      -0.25205400
O        9.04890000       3.76719000      27.72460000      -1.26350200      -0.10467800      -0.37355300       0.66259000
O        1.63499000       1.70835000       3.74193000      -1.32594300      -0.48073300       0.27536700       0.72306500
O        5.07479000       5.33761000      27.10580000      -1.38167100       0.31767500       0.00416200       0.38247300
O        4.13406000       4.58148000       2.05954000      -1.30569000       0.67549900       0.64599200      -0.66338100
O        2.67131000       8.74788000       6.16711000      -1.31674200       0.63179500       0.44550700       1.79649300
O        9.00267000       0.90970000       0.64541000      -1.31195100       0.19198000       0.51070500       0.20223500
O        5.21259000       7.99127000      24.29300000      -1.36105100      -1.97448300       1.32236500      -0.08321700
O        0.06234000       1.25906000      27.28350000      -1.36820200       0.81367300       0.15894100       0.41215500
O        2.87931000       6.49419000      23.97400000      -1.36619800      -0.08305600      -0.57364900      -0.05979200
O        6.33108000       5.38740000      24.61860000      -1.38606400      -2.92070200       1.37405700       0.41624600
O        7.87352000       3.47201000       1.48152000      -1.39701300       1.28113300      -0.09706900      -3.18333600
H        1.56826000       3.04058000       7.74685000       0.61655700       0.43696300      -0.76283100       0.65646500
H        1.81003000       4.18735000       6.83221000       0.64452300       1.34726400       0.95505700      -0.96481200
H        7.72259000       3.28660000       6.82842000       0.69402400       0.96126700       0.68784700       0.50764000
H        9.00314000       4.34262000       7.05933000       0.66509600      -0.46042100      -0.74558200      -0.01263800
H        4.34446000       6.21943000       2.90087000       0.65444900      -0.38124400       0.16136500      -0.02095200
H        2.03874000       7.46051000       3.56825000       0.66495800       2.36825900      -1.27068500      -0.73069400
H        1.91749000       3.69599000      25.63410000       0.67048700       0.22367500      -0.24042000       0.30202000
H        1.83714000       2.62623000      24.51090000       0.65953000       0.21216700      -0.27118300      -0.41578700
H        1.85999000       2.66380000       2.07339000       0.67296100      -0.47670700      -0.96664600       0.96922300
H        1.86968000       2.48026000       0.49724000       0.67741400       0.24944300       1.05071300       1.51729200
H        4.39713000       5.15544000       6.22347000       0.64648700      -0.43872700      -0.95087200      -0.57250000
H        3.69108000       1.32673000      27.52480000       0.66133700       0.54916300      -1.98744600      -0.04411600
H        3.32192000       1.95180000       4.38939000       0.69022400      -1.42908700       0.32003700      -0.92156400
H        0.25943000       4.57029000      28.57280000       0.63009600       0.29800600       0.53475600       0.14895800
H        5.72671000       4.12961000      27.95650000       0.67660900       0.22032400       0.50029000      -0.36098700
H        4.31404000       4.15495000       7.34532000       0.61833100       0.09250200      -0.60171900       0.88842600
H        0.07677000       6.26182000      22.50220000       0.60920900       0.17939200       0.09478000      -0.24038500
H        8.23264000       0.17418000      23.39460000       0.61316500       0.10779700      -0.30685200       0.23790100
H        7.31965000       7.91493000      22.76950000       0.60111400       0.94586700      -0.25502500       0.22193600
H        6.25048000       7.20958000      29.48400000       0.65774600      -0.73511100      -0.18943900      -0.02674100
H        5.87231000       3.14417000      29.09060000       0.66587700      -0.04754100      -0.54599900       0.89422600
H        3.22994000       8.05090000       1.15691000       0.65851200       0.37249300      -0.01262700      -0.07529000
H        5.71652000       1.37867000       2.67534000       0.60501100       0.48351500      -0.91082000       1.74212400
H        5.23826000       1.20771000       4.23420000       0.67583800       0.85393600       0.13742100      -0.99451600
H        4.29718000       2.64956000      27.34130000       0.60770100       0.02828800       0.12368000      -0.03947500
H        4.23784000       2.80060000       5.33096000       0.71122700       0.06446000       0.87394600       0.67315200
H        4.59620000       4.43073000      22.36600000       0.63280400       0.03627300      -0.11763000      -1.06734600
H        4.60290000       3.25657000      23.41810000       0.68332100      -0.02281000       0.50187200      -0.47850000
H        0.29148000       6.08381000      28.77100000       0.62683900       1.42824700      -1.79769100      -0.03337700
H        4.76056000       7.57363000       3.56950000       0.59657800      -1.86282300      -1.02605000      -1.80577800
H        9.30255000       4.54611000       4.33029000       0.62564800       0.08727100       0.07391700       0.05535400
H        8.36454000       5.33312000       1.13796000       0.66460200      -0.10080500       0.04751400       0.66743000
H        8.43183000       6.65360000       2.12305000       0.67439200      -0.39154000      -0.33295700      -0.25523700
H        7.54289000       8.59086000       3.64892000       0.64130400       0.63323000      -1.10530500      -0.02331100
H        8.94249000       8.69420000       3.06699000       0.60727500      -1.10485800      -2.05610200       1.21361300
H        2.80308000       7.84422000      27.57700000       0.66819700      -0.43325800       0.71988200      -0.66324600
H        1.55268000       8.59342000      26.86640000       0.66698300       0.04276000       1.25818800      -0.05434500
H        0.33653000       5.36765000       3.76267000       0.64539500       0.14359900       0.32561800      -0.45946500
H        7.63847000       7.03553000      29.87500000       0.64914400       0.81335100      -0.24500500       0.32300500
H        3.37152000       1.46534000      22.16640000       0.61424500       1.34189700      -0.35837300      -0.53260400
H        1.87995000       1.31052000      22.23300000       0.58467400       0.84882200       0.61519800       0.65629500
H        9.87160000       7.24516000      23.59220000       0.68790700      -1.15416100       1.26116200       0.06277200
H        6.62115000       2.00383000      23.30370000       0.62323800      -1.57254000      -0.67622300      -0.33714800
H        5.69935000       0.72481000      23.23560000       0.64157500      -0.25534100      -1.04099300       0.32533400
H        2.22017000       6.96970000       1.01557000       0.66763400      -0.03285300      -0.11364900      -0.55592900
H        4.05062000       6.76641000      29.88740000       0.68175700      -0.16597700      -0.14670100       0.02552600
H        2.45299000       5.73848000      25.84550000       0.69151900      -0.02831900       1.38011200      -1.14430700
H        5.10887000       3.16091000       1.30227000       0.61850200       0.10457100      -1.14732500      -0.72720700
H        1.90138000       5.26159000      27.19300000       0.66174000       0.16671500      -0.04000500       0.24605600
H        4.80672000       5.99155000      28.75690000       0.67193800      -0.01343000      -0.29398700      -1.00179200
H        6.49985000       2.82006000       1.01026000       0.66553900       0.28515600      -0.36046500      -0.20573900
H        7.10128000       2.00745000      27.01560000       0.64573600       0.13209800      -0.32375000       0.14008400
H        7.12577000       1.43853000      25.61990000       0.62586400       0.35066300      -0.36777000       0.29175500
H        9.91321000       4.18035000      25.17370000       0.65070900       0.04112800      -0.23076300       0.19649200
H        4.95782000       8.47195000      26.28680000       0.68048600       0.20308300      -0.30088300      -0.44816900
H        3.95217000       7.32363000       5.81931000       0.65093100       0.24928000      -0.72488600      -0.18603300
H        9.36102000       5.27723000      24.25420000       0.64312100       0.03086900      -0.49926100       0.70205800
H        5.41926000       6.71103000       5.84260000       0.64882400      -0.86969100      -0.10000900      -0.37327500
H        8.87989000       7.46948000       6.52694000       0.65734000       0.17946200      -0.33926800       0.05992400
H        0.14748000       7.13066000       7.19153000       0.62376900      -0.59467900       0.57400000      -0.23369500
H        1.78937000       0.21802000      29.75280000       0.68272800       0.71225700      -1.71770900       0.00647300
H        1.24682000       5.09716000       1.54426000       0.66839600       0.47100200      -0.71325200      -0.33915700
H        0.94856000       1.18979000      28.82500000       0.68390100       0.62716100      -0.37770100       0.02135000
H        0.31839000       6.22975000       1.72905000       0.67716600       0.03550800       0.28622000      -0.06185000
H        8.39707000       0.39527000       0.11881000       0.63942500      -0.66607200      -0.39543000      -0.27107000
H        8.16785000       1.29294000       6.29225000       0.66128600      -0.13104800      -0.19048700       0.13029900
H        6.92077000       0.93720000       7.26203000       0.61954800       0.35981300       0.15296000       0.00635100
H        8.82610000       2.96663000      23.70290000       0.65675000       0.20758400       0.28782900      -0.15961200
H        7.31117000       5.83752000       6.67146000       0.69650300       0.49828600      -1.81149300       0.41217200
H        6.95718000       2.54195000       4.11494000       0.63458300      -0.25464300      -0.24036900      -0.44874900
H        6.84190000       7.11295000       7.38460000       0.60245100       0.02398900      -0.17149800       0.42030400
H        8.67445000       1.86716000      22.52430000       0.61136600       0.21930200       0.72513600      -0.09131800
H        7.31307000       3.77690000       4.88975000       0.64136500       0.03873000       0.12578600      -1.18834800
H       10.05090000       2.14238000       6.12489000       0.64233000       0.00458800      -0.19339400       0.02114500
H        9.99675000       0.55607000       5.95894000       0.67420500      -0.13630900       1.22518800      -0.55485800
H        5.59125000       8.11171000      27.68490000       0.64016900      -1.19652400       0.87550200      -0.98915200
H        8.18058000       4.02928000      28.08360000       0.64931500       0.04259800       0.08658900      -0.16365800
H        1.02342000       2.12477000       4.42105000       0.64445400       0.76268700      -0.80696600      -1.17336100
H        9.15436000       2.88502000      28.10780000       0.61067500       0.10892500      -0.06190600      -0.30529000
H        8.88500000       6.08228000      26.68410000       0.65085100       0.08595600       0.02124400       0.19494700
H        1.43243000       0.71663000       3.83766000       0.65792500       0.26687800       0.81756900      -0.24642000
H        4.13826000       5.18066000      26.87230000       0.68938700      -0.30582400       0.03243900      -0.41334300
H        5.62441000       5.35640000      26.29630000       0.68722400      -0.21424400       0.12546000      -0.45670300
H        1.14063000       7.68098000       4.78353000       0.65314400       0.01037800       0.24815400      -0.82780300
H        3.33263000       4.06655000       2.02509000       0.67203100      -0.90629200      -0.83970400       0.12409600
H        3.12642000       0.71826000       5.71754000       0.66198800      -0.11282600      -0.37361400       0.52085500
H        4.00668000       5.05997000       1.21659000       0.64237700       0.65465200       0.05307700       0.10266300
H        2.80957000       0.17422000       7.15748000       0.58939200      -0.31674700      -0.47192200      -1.72504000
H        9.80342000       0.96701000       0.09586000       0.65677200       0.34353000      -0.04562300       0.39259400
H        8.11255000       7.05839000      27.67500000       0.64090400       1.51619500      -1.01443900      -0.06980200
H        4.42218000       7.53328000      23.90920000       0.67038800       0.39002800       0.13708700       0.46961800
H        5.93099000       7.40613000      24.21950000       0.67918900       1.40440100      -1.65147300      -0.00815100
H        0.39211000       1.96210000      26.70260000       0.69151400       0.33358500       0.04879100      -0.32161200
H        9.32983000       1.05453000      26.95510000       0.68678200      -0.98415100      -0.20508500      -0.33807700
H        1.94589000       6.65630000      23.64850000       0.68718800       0.88174700      -0.46792900       0.13355100
H        3.18785000       5.60941000      23.65190000       0.65080800      -0.47038600       0.85205300       0.08553600