246
Lattice="10.140377178 0.0 0.0 0.0 8.78182424 0.0 0.0 0.0 30.131127158" Properties=species:S:1:pos:R:3:initial_charges:R:1:forces:R:3 NELECT0=1456.0 NELECT=1456.0 U_vs_SHE=2.9054862126090386 stress="0.012341067609716554 0.0012285786563388606 0.002618631395273447 0.0012285786563388606 0.012457565377551164 0.0011220423370691592 0.002618631395273447 0.0011220423370691592 0.014780087096874455" free_energy=-1808.12838029 energy=-1808.00572673 pbc="T T T"
Cu       7.00278000       1.18330000       9.76696000      -0.00236700      -0.28258700      -0.27494300       0.45924100
Cu       9.54539000       1.22935000       9.82430000      -0.00183800      -0.76335400      -0.50297600      -0.19025800
Cu       1.72310000       1.06762000       9.93655000      -0.07460100       1.21307900       0.60738900      -0.36000800
Cu       4.41783000       1.12399000       9.75602000      -0.03381900      -0.25128400       0.23650600       0.18946100
Cu       8.20128000       3.32020000       9.94534000      -0.00817700       0.03082800       0.34994100      -0.21791100
Cu       0.55595000       3.38634000       9.88528000       0.03349300       0.67676500      -0.14990600      -0.23199700
Cu       3.15903000       3.35296000       9.68262000      -0.01410200      -0.03861400      -0.07842400       0.91976900
Cu       5.73231000       3.50233000       9.87239000      -0.03169600      -0.55956600      -0.84711600      -0.19835100
Cu       9.60144000       5.51325000       9.92491000      -0.03861500      -1.48987500       0.38867800      -0.29425900
Cu       1.76996000       5.61187000       9.90614000      -0.00446300       1.18350200      -0.42865800      -0.19521500
Cu       4.41500000       5.58135000       9.96801000      -0.04982200      -0.33741900      -0.30375600      -0.73250100
Cu       6.90816000       5.52546000       9.59537000       0.02152300       0.52176800       0.50185400       0.74197900
Cu       0.62597000       7.70243000       9.88492000      -0.02398800      -0.38700500       0.20399700      -0.08207600
Cu       3.13523000       7.79481000       9.96364000      -0.04250700      -0.05103500      -0.16652400      -0.14857900
Cu       5.62162000       7.73693000       9.81621000      -0.06800800       0.46483200       0.21087100       0.19465800
Cu       8.22324000       7.73468000       9.77857000      -0.01557500      -0.12584300      -0.05117600       0.38895200
Cu       5.55739000       1.85807000      11.75190000       0.01766000       0.85166800      -0.39788400       0.58268400
Cu       8.31000000       1.77182000      11.90130000       0.01734300      -1.14105700       0.52726800       0.22606500
Cu       0.55921000       1.93761000      11.87170000       0.02446900       0.59674500      -0.20491300       0.67351600
Cu       3.09745000       1.84144000      11.95340000       0.02367400      -0.02742800      -0.11036100      -0.36900300
Cu       6.91986000       4.02674000      11.91150000       0.02087500       0.25415000       0.03679400       0.31006000
Cu       9.54248000       4.06286000      11.89500000       0.01225500      -0.63109600      -0.05541200       0.62888500
Cu       1.91477000       4.10219000      11.96000000       0.02336000      -0.15351000      -0.51976800      -0.29742900
Cu       4.37970000       3.94952000      11.96130000       0.01781800       0.06342200       0.60278600      -0.22886100
Cu       8.18268000       6.21198000      11.94130000       0.02834000       0.15804400      -0.02591500      -0.31933200
Cu       0.56157000       6.20157000      11.95420000       0.02281000       0.23684100       0.61191100       0.33573100
Cu       3.12561000       6.17738000      11.86780000       0.00854200       0.02686900       0.56265300       0.75987900
Cu       5.68759000       6.24686000      11.83740000       0.02842800       0.10845800      -0.33972100       0.57124700
Cu       9.48122000       8.50212000      11.85620000       0.03076900      -0.09117400      -0.68558200       0.27881700
Cu       1.78589000       8.47792000      11.94220000       0.01014900       0.47562200      -0.35312600       0.37789000
Cu       4.41501000       8.38154000      12.01350000       0.01599800      -0.14259400       0.30913700      -0.40818600
Cu       6.94545000       8.32585000      11.97960000       0.01203600       0.04976400       0.82628600      -0.46870600
Cu       5.70396000       0.36591000      14.03060000       0.02519100       0.02775300       0.12567900      -0.18479700
Cu       8.23906000       0.36591000      14.03060000      -0.02805300      -0.00249600      -0.01034100      -0.15649000
Cu       0.63377000       0.36591000      14.03060000       0.00200600      -0.10786800       0.08993700      -0.15313100
Cu       3.16887000       0.36591000      14.03060000      -0.00140100      -0.08790700      -0.00644100      -0.06267300
Cu       6.97151000       2.56137000      14.03060000       0.02903600      -0.04111200      -0.09010800      -0.38241400
Cu       9.50660000       2.56137000      14.03060000      -0.02270800      -0.03785500       0.00590400      -0.16625600
Cu       1.90132000       2.56137000      14.03060000       0.00617100      -0.11001900      -0.00382100      -0.12135700
Cu       4.43642000       2.56137000      14.03060000       0.00617400       0.05477800      -0.12376300      -0.13123800
Cu       8.23906000       4.75682000      14.03060000       0.03034800      -0.01089700      -0.08050400      -0.20163600
Cu       0.63377000       4.75682000      14.03060000       0.00208100      -0.03000900      -0.03483600      -0.00431900
Cu       3.16887000       4.75682000      14.03060000      -0.02469300       0.03682000       0.03994500      -0.03974000
Cu       5.70396000       4.75682000      14.03060000      -0.00283800      -0.02446500       0.02647600      -0.25969100
Cu       9.50660000       6.95228000      14.03060000       0.01439800      -0.03883600       0.07656000      -0.19926400
Cu       1.90132000       6.95228000      14.03060000       0.02950700       0.00500100      -0.02965600      -0.23359400
Cu       4.43642000       6.95228000      14.03060000       0.00707700      -0.01141000      -0.18758900      -0.13252000
Cu       6.97151000       6.95228000      14.03060000      -0.01818800      -0.08375700      -0.13639200      -0.01991100
Cu       6.97151000       1.09773000      16.10050000       0.00682800      -0.04362900      -0.10556600      -0.04342400
Cu       9.50660000       1.09773000      16.10050000       0.00287800       0.14430400      -0.02111700       0.03186000
Cu       1.90132000       1.09773000      16.10050000      -0.02542300       0.03240700       0.02539000      -0.08472900
Cu       4.43642000       1.09773000      16.10050000       0.03016000       0.02446800       0.15199600       0.07680100
Cu       8.23906000       3.29318000      16.10050000       0.03634500       0.08060400       0.10126000       0.21879100
Cu       0.63377000       3.29318000      16.10050000       0.00282500       0.03006500       0.08681500       0.22505500
Cu       3.16887000       3.29318000      16.10050000       0.00349500      -0.10989000      -0.07977200       0.03632500
Cu       5.70396000       3.29318000      16.10050000      -0.02336300       0.08346400      -0.07322900      -0.18916500
Cu       9.50660000       5.48864000      16.10050000       0.02805100       0.00762200      -0.15583300       0.10098300
Cu       1.90132000       5.48864000      16.10050000       0.00335900       0.01654800      -0.02171200       0.09969600
Cu       4.43642000       5.48864000      16.10050000       0.00775800       0.14441300      -0.05983800      -0.18501700
Cu       6.97151000       5.48864000      16.10050000      -0.02561900      -0.08114400       0.00722800      -0.09766700
Cu       0.63377000       7.68410000      16.10050000       0.03344600      -0.00727900       0.15052800       0.06675200
Cu       3.16887000       7.68410000      16.10050000       0.01430100       0.04939700       0.04861500       0.00889900
Cu       5.70396000       7.68410000      16.10050000       0.01477300       0.07044400       0.06033700       0.10201100
Cu       8.23906000       7.68410000      16.10050000      -0.01360800      -0.02365300       0.03797800       0.01629800
Cu       5.81984000       1.83274000      18.20220000       0.00696000      -0.38958600      -0.22277900      -0.11058600
Cu       8.26184000       1.73964000      18.11560000       0.02267900       0.27119600       0.57700900       0.50059600
Cu       0.71505000       1.81271000      18.18020000       0.01835300      -0.33928300      -0.02592300      -0.17194600
Cu       3.13440000       1.73132000      18.22380000       0.02106300       0.66139200       0.81904700      -0.13270100
Cu       6.92943000       4.04269000      18.17120000       0.01762400       0.44035800      -0.21988900       0.17640700
Cu       9.61992000       3.92377000      18.32190000       0.01620300      -0.38674000       0.32305500      -0.95799400
Cu       1.98701000       4.10003000      18.25390000       0.02057100      -0.17547400      -0.42958100      -0.43102100
Cu       4.45738000       3.93641000      18.09650000       0.01689700      -0.02102300       0.21987000       0.58070800
Cu       8.19382000       6.17621000      18.12780000       0.01114600       0.42801300      -0.08674800       0.37040500
Cu       0.62716000       6.25607000      18.11980000       0.01769000       0.25546900      -0.16889700       0.45748100
Cu       3.31269000       6.19616000      18.12760000       0.02423900      -0.80877900       0.36474700       0.48407900
Cu       5.69345000       6.26790000      18.19260000       0.03146500       0.29615100      -0.31608600       0.08533200
Cu       9.43141000       8.39693000      18.21330000       0.03037300       0.79155600      -0.05201100      -0.14176300
Cu       1.98009000       8.46041000      18.18530000       0.01029600      -0.62062800      -0.93474700       0.12105100
Cu       4.47462000       8.46166000      18.15890000       0.03285000       0.09369300      -0.27375800       0.09791700
Cu       7.05844000       8.37863000      18.25180000       0.01761400      -0.49340600       0.18487100      -0.22962400
Cu       5.70305000       0.26370000      20.18820000      -0.02591500       0.34043000       0.59452700       0.29993500
Cu       8.41105000       0.33973000      20.53940000      -0.00552400      -0.88196400      -0.24291800      -0.70101500
Cu       0.58034000       0.37985000      20.22730000      -0.06435200       1.08957700      -0.72536400      -0.11973300
Cu       3.19052000       0.23593000      20.28020000      -0.03875300      -0.02749200       0.17019600      -0.42881300
Cu       7.16305000       2.45484000      20.24500000      -0.00796100      -0.39789500       0.19855900      -0.15658900
Cu       9.66230000       2.45956000      20.26960000      -0.04032000      -0.64140700       0.52526400       0.03857900
Cu       1.94947000       2.53583000      20.24830000       0.03943500       0.36408600       0.08563400      -0.01005300
Cu       4.52073000       2.51147000      20.17420000       0.00848300       0.00728900       0.06518600      -0.06586200
Cu       8.32629000       4.68882000      20.17210000      -0.04669900      -0.23901100       0.21886300       0.25157700
Cu       0.72408000       4.71429000      20.25710000      -0.04271700      -0.15619500       0.26047800       0.08827300
Cu       3.24743000       4.81469000      20.22980000      -0.04989700       0.16102700      -0.35706300      -0.05730800
Cu       5.73839000       4.70739000      20.27900000      -0.04414900       0.20657100       0.05120700      -0.43803400
Cu       9.56308000       6.93272000      20.20000000      -0.05961400      -0.11155000      -0.31011500      -0.07329500
Cu       1.94232000       6.88870000      20.36170000      -0.00534300      -0.06772800       0.19962600      -0.57336900
Cu       4.51975000       6.95295000      20.35130000       0.00458300      -0.31305000      -0.36949700      -0.25900200
Cu       6.97907000       6.96171000      20.24970000      -0.04799300       0.43699200      -0.41046800      -0.02268600
O        1.12447000       3.75669000       7.29917000      -1.31139000      -1.77310100      -0.44823500       0.72884000
O        8.15636000       4.16636000       6.60574000      -1.34826800      -0.62797700       0.10532900       0.40913700
O        1.26870000       7.89654000       3.82762000      -1.27185100      -2.50780100       1.08507800       2.07474900
O        1.47965000       2.86030000      25.36920000      -1.32004300      -0.79742000       0.17697500      -0.43419300
O        1.97595000       3.15331000       1.26829000      -1.33527700      -0.10299900      -0.17823300      -1.99699200
O        3.47790000       2.22872000      27.61100000      -1.24196300      -0.57586500       2.02795000       0.03213600
O        0.89618000       5.26197000      28.88900000      -1.21248600      -1.35500500       1.38459300      -0.55097900
O        4.27708000       4.16085000       6.38876000      -1.29856600      -0.04016900       0.89098300       0.42228000
O        0.29157000       6.50824000      23.42700000      -1.29376800       0.69290200      -1.32985700      -0.96926900
O        8.09815000       7.98940000      23.38240000      -1.23568700      -0.89166300       0.59616800      -1.02516400
O        6.37439000       3.51977000      28.36770000      -1.36185000       0.15387800      -0.37291000      -0.53324600
O        5.98174000       0.95211000       3.57056000      -1.30345800      -0.78490700       0.66005700      -0.82104100
O        4.10061000       1.93392000       4.93239000      -1.37864900       0.68787700      -0.81115500       1.10727100
O        4.52865000       4.23782000      23.30630000      -1.26212400      -0.56234300      -0.83930900       0.36609400
O        4.09741000       7.16448000       2.88921000      -1.24226900       1.82189700       1.35494900       1.89503500
O        0.08247000       4.79109000       4.48033000      -1.30268500      -0.13400400      -0.51334900       0.86728800
O        8.60842000       6.27127000       1.23300000      -1.33115400       0.40696200       0.46053600      -0.13039100
O        8.34981000       7.99351000       3.54484000      -1.25032800       0.32755800       3.08328700      -1.07661700
O        1.90795000       7.78727000      27.19770000      -1.33068200       0.46668200      -2.06311700       0.40822500
O        7.13027000       7.50071000      29.20340000      -1.31471500      -0.04571400       0.57814200      -0.16965200
O        2.64922000       1.77535000      22.69670000      -1.24127000      -2.40323400      -0.23857200      -0.23127800
O        5.65655000       1.67412000      23.24460000      -1.29570900       1.62281300       2.24512500      -0.49132100
O        2.78717000       7.56426000       0.44629000      -1.30744700      -0.52456000       0.31625200       0.60774300
O        4.79298000       6.15092000      29.69520000      -1.35738600       0.27043700       0.26606900       0.96357200
O        2.53256000       5.03751000      26.47260000      -1.32095800      -0.33902300      -0.94590100       0.59287600
O        5.61831000       2.40893000       0.85269000      -1.28814400      -1.04997600       1.24057000       1.00467700
O        7.44998000       1.23922000      26.51890000      -1.25728400      -0.38355800       0.60541000      -0.67639400
O        9.07838000       4.61627000      24.94890000      -1.29842100       0.06522200       0.64027000      -1.59745400
O        4.80758000       8.54255000      27.23710000      -1.30923200       0.81538500      -0.68145400       0.92824700
O        4.48651000       6.54288000       5.49654000      -1.28463500       0.99076400       1.22190800       1.53570900
O        9.82602000       7.70922000       6.54340000      -1.27089600       0.47341700      -0.20794900       0.75231900
O        1.44303000       1.08591000      29.67060000      -1.35091800      -1.35376400       2.11934700      -0.37488000
O        1.23788000       5.97225000       1.94320000      -1.33482600      -0.60257600      -0.03863100       0.10402000
O        7.33254000       1.60753000       6.69009000      -1.30407000      -0.67009200       0.21342200       0.56102000
O        8.42103000       2.13181000      23.44120000      -1.31474400      -0.54332200      -1.11332800      -0.69940200
O        7.08987000       6.74215000       6.52014000      -1.27192400      -0.45904900       2.11797100       0.04789400
O        7.13278000       3.48606000       3.95113000      -1.26229100       0.27843600       0.32173800       2.42761300
O        9.78215000       1.44619000       5.49770000      -1.27952900      -0.16278200      -1.07960900       1.65552200
O        8.97527000       6.55233000      27.52880000      -1.26731500      -1.43062100       0.97130700      -0.43476200
O        9.04890000       3.76719000      27.72460000      -1.26739800      -0.05840400      -0.32465000       0.46839000
O        1.63499000       1.70835000       3.74193000      -1.30516000      -0.45420600       0.28946400       1.16761900
O        5.07479000       5.33761000      27.10580000      -1.36070700       0.38030000       0.03034600      -0.04905500
O        4.13406000       4.58148000       2.05954000      -1.30535300       0.70778500       0.64083500      -0.52664300
O        2.67131000       8.74788000       6.16711000      -1.27016200       0.50728900       0.29673100       2.53012700
O        9.00267000       0.90970000       0.64541000      -1.30691900       0.19157200       0.53195500       0.25357900
O        5.21259000       7.99127000      24.29300000      -1.33446900      -1.90455200       1.47274800      -0.79424500
O        0.06234000       1.25906000      27.28350000      -1.35524700       0.85513300       0.15369200       0.13601200
O        2.87931000       6.49419000      23.97400000      -1.33030300      -0.06868300      -0.46592400      -0.75711200
O        6.33108000       5.38740000      24.61860000      -1.36243200      -3.07194200       1.36089300      -0.36741600
O        7.87352000       3.47201000       1.48152000      -1.38524000       1.16508100      -0.08746400      -2.98854200
H        1.56826000       3.04058000       7.74685000       0.61333400       0.37510000      -0.72318400       0.21094100
H        1.81003000       4.18735000       6.83221000       0.68236100       1.34728400       0.97569800      -1.28664300
H        7.72259000       3.28660000       6.82842000       0.69226500       0.97715300       0.66454700       0.21259600
H        9.00314000       4.34262000       7.05933000       0.65671800      -0.43809700      -0.78159400      -0.36371800
H        4.34446000       6.21943000       2.90087000       0.65910000      -0.35680100       0.02945600      -0.18153500
H        2.03874000       7.46051000       3.56825000       0.67229600       2.42318400      -1.34779200      -0.89574900
H        1.91749000       3.69599000      25.63410000       0.67752900       0.33035000      -0.04245500       0.52068900
H        1.83714000       2.62623000      24.51090000       0.63248600       0.19395300      -0.18224400      -0.07790000
H        1.85999000       2.66380000       2.07339000       0.67071300      -0.47327900      -0.92613200       0.83086700
H        1.86968000       2.48026000       0.49724000       0.68250700       0.22974000       0.97326100       1.45456900
H        4.39713000       5.15544000       6.22347000       0.65408500      -0.42964100      -0.58831700      -0.85922300
H        3.69108000       1.32673000      27.52480000       0.66625900       0.56702400      -2.11752000       0.04040900
H        3.32192000       1.95180000       4.38939000       0.70036300      -1.58321200       0.33223200      -1.18270200
H        0.25943000       4.57029000      28.57280000       0.63616500       0.19883700       0.40082300       0.17008400
H        5.72671000       4.12961000      27.95650000       0.67642000       0.27923300       0.44572200      -0.21166100
H        4.31404000       4.15495000       7.34532000       0.59078900       0.12493400      -0.52689900       0.55686300
H        0.07677000       6.26182000      22.50220000       0.58991600       0.16762000       0.15889600       0.33893900
H        8.23264000       0.17418000      23.39460000       0.61984400       0.08063900      -0.23170000       0.55891900
H        7.31965000       7.91493000      22.76950000       0.59531600       0.90588800      -0.24163400       0.69251000
H        6.25048000       7.20958000      29.48400000       0.66122100      -0.79188300      -0.20104600       0.02333100
H        5.87231000       3.14417000      29.09060000       0.67232300      -0.04793300      -0.56739100       0.93337300
H        3.22994000       8.05090000       1.15691000       0.65900700       0.36189600       0.03829100      -0.14916000
H        5.71652000       1.37867000       2.67534000       0.61902300       0.48174700      -0.89982400       1.58034000
H        5.23826000       1.20771000       4.23420000       0.66747000       1.09722100      -0.00070100      -1.33948800
H        4.29718000       2.64956000      27.34130000       0.61300700       0.14432100       0.18147200       0.04611000
H        4.23784000       2.80060000       5.33096000       0.70441700       0.03107800       0.58409000       0.24886200
H        4.59620000       4.43073000      22.36600000       0.56441200       0.02251500      -0.19824200      -0.51987500
H        4.60290000       3.25657000      23.41810000       0.68996900      -0.00849500       0.49433400      -0.25767400
H        0.29148000       6.08381000      28.77100000       0.63692100       1.38035500      -1.69192300       0.06863300
H        4.76056000       7.57363000       3.56950000       0.58719900      -1.79291400      -0.96000700      -2.03988400
H        9.30255000       4.54611000       4.33029000       0.62828500       0.12073700       0.07133500      -0.16061100
H        8.36454000       5.33312000       1.13796000       0.66688200      -0.12789600       0.03620700       0.65697800
H        8.43183000       6.65360000       2.12305000       0.67168700      -0.39066500      -0.39957200      -0.40180000
H        7.54289000       8.59086000       3.64892000       0.63920700       0.63399400      -1.11381700      -0.18315400
H        8.94249000       8.69420000       3.06699000       0.61800200      -1.10286600      -2.05761500       1.06800700
H        2.80308000       7.84422000      27.57700000       0.67679700      -0.38811100       0.71229100      -0.51902300
H        1.55268000       8.59342000      26.86640000       0.66670600      -0.02627600       1.32474200       0.07367900
H        0.33653000       5.36765000       3.76267000       0.66035900       0.21773100       0.35607200      -0.64243100
H        7.63847000       7.03553000      29.87500000       0.65464800       0.85175000      -0.26104300       0.39868300
H        3.37152000       1.46534000      22.16640000       0.61014300       1.35818500      -0.36372200      -0.22725100
H        1.87995000       1.31052000      22.23300000       0.58484400       0.93719000       0.62662900       1.00434900
H        9.87160000       7.24516000      23.59220000       0.69649800      -1.15380100       1.24370400       0.31100300
H        6.62115000       2.00383000      23.30370000       0.62908200      -1.54935000      -0.63619800      -0.06736900
H        5.69935000       0.72481000      23.23560000       0.64378600      -0.31531600      -1.22848300       0.68728400
H        2.22017000       6.96970000       1.01557000       0.66792200      -0.01689700      -0.08403900      -0.60416500
H        4.05062000       6.76641000      29.88740000       0.68592700      -0.19646700      -0.09887500       0.04663400
H        2.45299000       5.73848000      25.84550000       0.68160800      -0.06342200       1.32582000      -0.76854800
H        5.10887000       3.16091000       1.30227000       0.62654700       0.05549700      -1.07070100      -0.73074800
H        1.90138000       5.26159000      27.19300000       0.66974800       0.12803000      -0.01443100       0.38461900
H        4.80672000       5.99155000      28.75690000       0.66838100      -0.03249100      -0.25985300      -0.85000600
H        6.49985000       2.82006000       1.01026000       0.67080700       0.42061300      -0.29410600      -0.23508700
H        7.10128000       2.00745000      27.01560000       0.65854100       0.09345900      -0.24456400       0.29496500
H        7.12577000       1.43853000      25.61990000       0.59799500       0.30698600      -0.33333200       0.54232600
H        9.91321000       4.18035000      25.17370000       0.66366000       0.12321200      -0.27785200       0.42953800
H        4.95782000       8.47195000      26.28680000       0.66721800       0.18802000      -0.24785600      -0.08561100
H        3.95217000       7.32363000       5.81931000       0.64802800       0.27221900      -0.75080000      -0.43736500
H        9.36102000       5.27723000      24.25420000       0.62732200      -0.07576500      -0.67157300       1.05205400
H        5.41926000       6.71103000       5.84260000       0.64317400      -1.05739300      -0.06733400      -0.70328900
H        8.87989000       7.46948000       6.52694000       0.66285700       0.16688400      -0.38018000      -0.22582400
H        0.14748000       7.13066000       7.19153000       0.59932800      -0.62068400       0.51721200      -0.67646700
H        1.78937000       0.21802000      29.75280000       0.68728200       0.71881300      -1.74149200       0.05630200
H        1.24682000       5.09716000       1.54426000       0.67153300       0.48395300      -0.73308200      -0.34646000
H        0.94856000       1.18979000      28.82500000       0.68161000       0.64811400      -0.38343100       0.16961900
H        0.31839000       6.22975000       1.72905000       0.68113400      -0.03161200       0.31379500      -0.12695900
H        8.39707000       0.39527000       0.11881000       0.64057000      -0.66877000      -0.39210700      -0.25786200
H        8.16785000       1.29294000       6.29225000       0.67540900       0.16622100      -0.23868700      -0.25226600
H        6.92077000       0.93720000       7.26203000       0.60810000       0.37940000       0.18064700      -0.48149400
H        8.82610000       2.96663000      23.70290000       0.67581200       0.30524500       0.50983000       0.21908300
H        7.31117000       5.83752000       6.67146000       0.66833300       0.53051600      -1.90691800       0.16148400
H        6.95718000       2.54195000       4.11494000       0.63422000      -0.29257600      -0.32778600      -0.62148700
H        6.84190000       7.11295000       7.38460000       0.58417100       0.04066200      -0.25575300      -0.04497700
H        8.67445000       1.86716000      22.52430000       0.59165800       0.17384800       0.85818300       0.51780200
H        7.31307000       3.77690000       4.88975000       0.62025400      -0.08980900       0.06051400      -1.57824000
H       10.05090000       2.14238000       6.12489000       0.62641700       0.01769400      -0.22551000      -0.23251700
H        9.99675000       0.55607000       5.95894000       0.66831200      -0.09908100       1.40992500      -0.85306100
H        5.59125000       8.11171000      27.68490000       0.65122800      -1.15121800       0.85234300      -0.86400900
H        8.18058000       4.02928000      28.08360000       0.65486800      -0.00013200       0.09096200      -0.08292900
H        1.02342000       2.12477000       4.42105000       0.63414400       0.88522900      -0.75225100      -1.47145600
H        9.15436000       2.88502000      28.10780000       0.61997300       0.12231200      -0.06259100      -0.22436300
H        8.88500000       6.08228000      26.68410000       0.64014300       0.05251100       0.01257700       0.35026700
H        1.43243000       0.71663000       3.83766000       0.65882100       0.25192100       0.77616800      -0.39870800
H        4.13826000       5.18066000      26.87230000       0.68852000      -0.21973300       0.03887800      -0.30019200
H        5.62441000       5.35640000      26.29630000       0.67557000      -0.38428500       0.11514400      -0.01063000
H        1.14063000       7.68098000       4.78353000       0.63433100       0.06514100       0.17763600      -1.14871000
H        3.33263000       4.06655000       2.02509000       0.67251400      -0.93767100      -0.83104200       0.07976700
H        3.12642000       0.71826000       5.71754000       0.67921900       0.04804300      -0.09575000       0.18083600
H        4.00668000       5.05997000       1.21659000       0.64964800       0.66481700       0.07759700       0.05514300
H        2.80957000       0.17422000       7.15748000       0.55262000      -0.29831600      -0.44447400      -2.15758300
H        9.80342000       0.96701000       0.09586000       0.65768400       0.33183400      -0.04877500       0.41661700
H        8.11255000       7.05839000      27.67500000       0.64864400       1.38200700      -0.91195500       0.09542400
H        4.42218000       7.53328000      23.90920000       0.66217000       0.39961400       0.10981200       0.71335200
H        5.93099000       7.40613000      24.21950000       0.67909200       1.39482100      -1.76386600       0.25133000
H        0.39211000       1.96210000      26.70260000       0.68540500       0.22612800      -0.02501800      -0.09804900
H        9.32983000       1.05453000      26.95510000       0.68487800      -0.95186000      -0.19798700      -0.21930900
H        1.94589000       6.65630000      23.64850000       0.67874600       1.00104100      -0.50371200       0.42233300
H        3.18785000       5.60941000      23.65190000       0.64390900      -0.53036500       0.84683900       0.36466200