246
Lattice="10.140377178 0.0 0.0 0.0 8.78182424 0.0 0.0 0.0 30.131127158" Properties=species:S:1:pos:R:3:initial_charges:R:1:forces:R:3 NELECT0=1456.0 NELECT=1459.0 U_vs_SHE=0.41686681085062016 stress="0.006655208833765052 0.0012200465133637782 0.0026693249323938703 0.0012200465133637782 0.005529434074238615 0.0007956488588402201 0.0026693249323938703 0.0007956488588402201 0.0049457343822951385" free_energy=-1802.68762413 energy=-1815.6117201625518 pbc="T T T"
Cu       7.00278000       1.18330000       9.76696000      -0.04343700      -0.29485400      -0.31398300       0.48140000
Cu       9.54539000       1.22935000       9.82430000      -0.04482200      -0.77002800      -0.50483400      -0.19995900
Cu       1.72310000       1.06762000       9.93655000      -0.11696200       1.23070700       0.61582100      -0.41930100
Cu       4.41783000       1.12399000       9.75602000      -0.08320600      -0.25998300       0.22535900       0.15229700
Cu       8.20128000       3.32020000       9.94534000      -0.04290600       0.04020200       0.34160900      -0.19975000
Cu       0.55595000       3.38634000       9.88528000       0.00346700       0.65433200      -0.17826300      -0.12939500
Cu       3.15903000       3.35296000       9.68262000      -0.06785800      -0.01399500      -0.09417900       0.94472900
Cu       5.73231000       3.50233000       9.87239000      -0.06989300      -0.57459000      -0.84390000      -0.21064900
Cu       9.60144000       5.51325000       9.92491000      -0.07963500      -1.50122900       0.39378400      -0.31186900
Cu       1.76996000       5.61187000       9.90614000      -0.04222800       1.19348100      -0.41077900      -0.20209100
Cu       4.41500000       5.58135000       9.96801000      -0.08703800      -0.34850300      -0.31874700      -0.77307500
Cu       6.90816000       5.52546000       9.59537000      -0.02700600       0.51929300       0.51432200       0.78854400
Cu       0.62597000       7.70243000       9.88492000      -0.06425600      -0.37778600       0.19227300      -0.09802600
Cu       3.13523000       7.79481000       9.96364000      -0.08327100      -0.04370800      -0.16278000      -0.20540800
Cu       5.62162000       7.73693000       9.81621000      -0.11516100       0.47410800       0.22559900       0.12401400
Cu       8.22324000       7.73468000       9.77857000      -0.05994000      -0.14937500      -0.04741900       0.38620300
Cu       5.55739000       1.85807000      11.75190000       0.00173800       0.84025300      -0.39832500       0.60717800
Cu       8.31000000       1.77182000      11.90130000       0.00264700      -1.14067200       0.51741100       0.23921700
Cu       0.55921000       1.93761000      11.87170000       0.01076700       0.60706400      -0.22130400       0.68559800
Cu       3.09745000       1.84144000      11.95340000       0.00795400      -0.02017500      -0.11996400      -0.36942000
Cu       6.91986000       4.02674000      11.91150000       0.00681300       0.25201100       0.03135400       0.32905100
Cu       9.54248000       4.06286000      11.89500000      -0.00103500      -0.63601000      -0.06085700       0.64050700
Cu       1.91477000       4.10219000      11.96000000       0.00924500      -0.15262300      -0.53354000      -0.29832700
Cu       4.37970000       3.94952000      11.96130000       0.00315100       0.06724300       0.58512500      -0.21198600
Cu       8.18268000       6.21198000      11.94130000       0.01361300       0.15448300      -0.02720200      -0.32961200
Cu       0.56157000       6.20157000      11.95420000       0.00875500       0.24330000       0.60912200       0.34859800
Cu       3.12561000       6.17738000      11.86780000      -0.00421100       0.03514700       0.56198600       0.77447100
Cu       5.68759000       6.24686000      11.83740000       0.01261200       0.10121400      -0.33703200       0.59409600
Cu       9.48122000       8.50212000      11.85620000       0.01633900      -0.08755100      -0.70040800       0.28603700
Cu       1.78589000       8.47792000      11.94220000      -0.00335500       0.47789200      -0.36614000       0.39152600
Cu       4.41501000       8.38154000      12.01350000       0.00122600      -0.13941500       0.29639000      -0.40220100
Cu       6.94545000       8.32585000      11.97960000      -0.00303200       0.04367500       0.80685500      -0.45697000
Cu       5.70396000       0.36591000      14.03060000       0.01187600       0.02160000       0.13337500      -0.16862600
Cu       8.23906000       0.36591000      14.03060000      -0.04161600       0.00673500      -0.00275500      -0.14915900
Cu       0.63377000       0.36591000      14.03060000      -0.01135400      -0.11655000       0.09701700      -0.13592100
Cu       3.16887000       0.36591000      14.03060000      -0.01499700      -0.08308900      -0.00167900      -0.05088500
Cu       6.97151000       2.56137000      14.03060000       0.01598100      -0.04469900      -0.08676800      -0.37165000
Cu       9.50660000       2.56137000      14.03060000      -0.03693300      -0.03955000       0.01050300      -0.16040600
Cu       1.90132000       2.56137000      14.03060000      -0.00710200      -0.10336700       0.00045000      -0.10531900
Cu       4.43642000       2.56137000      14.03060000      -0.00699400       0.05010500      -0.12229400      -0.09720400
Cu       8.23906000       4.75682000      14.03060000       0.01566500      -0.00693600      -0.07314900      -0.19792600
Cu       0.63377000       4.75682000      14.03060000      -0.01245000      -0.03323400      -0.03039600       0.00768500
Cu       3.16887000       4.75682000      14.03060000      -0.03868400       0.04026900       0.04804800      -0.02516900
Cu       5.70396000       4.75682000      14.03060000      -0.01562900      -0.03240900       0.03446600      -0.25117000
Cu       9.50660000       6.95228000      14.03060000       0.00124600      -0.03945400       0.07999000      -0.19020000
Cu       1.90132000       6.95228000      14.03060000       0.01627800       0.01614900      -0.02450500      -0.22872300
Cu       4.43642000       6.95228000      14.03060000      -0.00849300      -0.01612200      -0.18355100      -0.11311900
Cu       6.97151000       6.95228000      14.03060000      -0.03283000      -0.08984700      -0.13188200       0.00116400
Cu       6.97151000       1.09773000      16.10050000      -0.00795900      -0.04593700      -0.11137900      -0.06325800
Cu       9.50660000       1.09773000      16.10050000      -0.01024600       0.14521400      -0.02115500       0.01305200
Cu       1.90132000       1.09773000      16.10050000      -0.03924100       0.03282300       0.01836500      -0.09801600
Cu       4.43642000       1.09773000      16.10050000       0.01509800       0.02701000       0.15187100       0.08446300
Cu       8.23906000       3.29318000      16.10050000       0.02237400       0.07670800       0.09590600       0.19856800
Cu       0.63377000       3.29318000      16.10050000      -0.01248400       0.04112500       0.07564200       0.20684700
Cu       3.16887000       3.29318000      16.10050000      -0.00948500      -0.12426300      -0.08696400       0.02723700
Cu       5.70396000       3.29318000      16.10050000      -0.03579600       0.09340500      -0.08194000      -0.19934700
Cu       9.50660000       5.48864000      16.10050000       0.01561100       0.00454900      -0.16650600       0.09000200
Cu       1.90132000       5.48864000      16.10050000      -0.01035200       0.01929300      -0.02508500       0.08198100
Cu       4.43642000       5.48864000      16.10050000      -0.03121500       0.14800200      -0.06421500      -0.20985000
Cu       6.97151000       5.48864000      16.10050000      -0.01386500      -0.08572700      -0.00062200      -0.11012200
Cu       0.63377000       7.68410000      16.10050000       0.01975200      -0.00241500       0.14505400       0.04729800
Cu       3.16887000       7.68410000      16.10050000      -0.00023600       0.03875000       0.04350100       0.00937900
Cu       5.70396000       7.68410000      16.10050000       0.00166000       0.07304300       0.05489800       0.09624000
Cu       8.23906000       7.68410000      16.10050000      -0.02791300      -0.01957400       0.02966700      -0.00449400
Cu       5.81984000       1.83274000      18.20220000      -0.00657500      -0.38066500      -0.21447200      -0.11894600
Cu       8.26184000       1.73964000      18.11560000       0.00770200       0.27709900       0.59549700       0.49155400
Cu       0.71505000       1.81271000      18.18020000       0.00394800      -0.34794800      -0.01039900      -0.18043300
Cu       3.13440000       1.73132000      18.22380000       0.00789100       0.65552100       0.83470400      -0.14825500
Cu       6.92943000       4.04269000      18.17120000       0.00313900       0.44756000      -0.21487300       0.17422100
Cu       9.61992000       3.92377000      18.32190000       0.00002100      -0.38968200       0.30792600      -0.98107400
Cu       1.98701000       4.10003000      18.25390000       0.00682700      -0.18028300      -0.42324600      -0.44147300
Cu       4.45738000       3.93641000      18.09650000       0.00317400      -0.02185600       0.23650100       0.58498000
Cu       8.19382000       6.17621000      18.12780000      -0.00158200       0.42751800      -0.07342800       0.35970000
Cu       0.62716000       6.25607000      18.11980000       0.00399500       0.25651100      -0.15434400       0.43968600
Cu       3.31269000       6.19616000      18.12760000       0.00910400      -0.80978900       0.38626000       0.49528900
Cu       5.69345000       6.26790000      18.19260000       0.01671400       0.29573100      -0.30707900       0.06811000
Cu       9.43141000       8.39693000      18.21330000       0.01513100       0.79685800      -0.04192200      -0.14840400
Cu       1.98009000       8.46041000      18.18530000      -0.00335400      -0.63381400      -0.93484300       0.12937800
Cu       4.47462000       8.46166000      18.15890000       0.01996700       0.09411900      -0.27531900       0.08261500
Cu       7.05844000       8.37863000      18.25180000       0.00343400      -0.48660900       0.19056000      -0.24025000
Cu       5.70305000       0.26370000      20.18820000      -0.06063000       0.35115400       0.58108100       0.29703900
Cu       8.41105000       0.33973000      20.53940000      -0.05292100      -0.88813700      -0.19981800      -0.73422400
Cu       0.58034000       0.37985000      20.22730000      -0.10324800       1.09226400      -0.72086700      -0.06769400
Cu       3.19052000       0.23593000      20.28020000      -0.07641700      -0.01988200       0.16144700      -0.42901500
Cu       7.16305000       2.45484000      20.24500000      -0.04383300      -0.38130500       0.20693500      -0.18614100
Cu       9.66230000       2.45956000      20.26960000      -0.07898700      -0.64769500       0.51478700       0.06854100
Cu       1.94947000       2.53583000      20.24830000       0.00997100       0.33858100       0.10259700      -0.10493000
Cu       4.52073000       2.51147000      20.17420000      -0.02476400       0.00329900       0.07372200      -0.10919100
Cu       8.32629000       4.68882000      20.17210000      -0.08590000      -0.24228000       0.23511500       0.28894100
Cu       0.72408000       4.71429000      20.25710000      -0.08452300      -0.16260100       0.28304900       0.13252900
Cu       3.24743000       4.81469000      20.22980000      -0.08736300       0.16145000      -0.35347600      -0.05738400
Cu       5.73839000       4.70739000      20.27900000      -0.08863600       0.21136200       0.05342400      -0.41494800
Cu       9.56308000       6.93272000      20.20000000      -0.09957100      -0.10694600      -0.32596600      -0.03528200
Cu       1.94232000       6.88870000      20.36170000      -0.04575600      -0.08424500       0.19899700      -0.60182200
Cu       4.51975000       6.95295000      20.35130000      -0.03506300      -0.30413000      -0.36975700      -0.25125500
Cu       6.97907000       6.96171000      20.24970000      -0.09068800       0.43938000      -0.40747100       0.01603600
O        1.12447000       3.75669000       7.29917000      -1.32845800      -1.81278600      -0.44814900       0.17930000
O        8.15636000       4.16636000       6.60574000      -1.36927700      -0.62023800       0.01239200      -0.06195400
O        1.26870000       7.89654000       3.82762000      -1.28266600      -2.47906100       1.03051100       1.90576000
O        1.47965000       2.86030000      25.36920000      -1.33676200      -0.78497400       0.23606300      -0.23173700
O        1.97595000       3.15331000       1.26829000      -1.35726600      -0.12181200      -0.21845900      -2.01005900
O        3.47790000       2.22872000      27.61100000      -1.28731900      -0.47575900       1.96674800       0.09852700
O        0.89618000       5.26197000      28.88900000      -1.26886600      -1.45277700       1.34342700      -0.50248600
O        4.27708000       4.16085000       6.38876000      -1.32413700       0.00336900       0.97952600       0.04253500
O        0.29157000       6.50824000      23.42700000      -1.32191200       0.65777900      -1.34973400      -0.54096500
O        8.09815000       7.98940000      23.38240000      -1.26244500      -0.92887900       0.59332900      -0.56192800
O        6.37439000       3.51977000      28.36770000      -1.37311000       0.17716100      -0.35890500      -0.44489700
O        5.98174000       0.95211000       3.57056000      -1.31065100      -0.72963900       0.61511000      -1.02103100
O        4.10061000       1.93392000       4.93239000      -1.38228000       0.72662600      -0.85845200       0.76033200
O        4.52865000       4.23782000      23.30630000      -1.33741700      -0.46838200      -0.83238000       0.80997200
O        4.09741000       7.16448000       2.88921000      -1.26119700       1.86937100       1.33609200       1.72927800
O        0.08247000       4.79109000       4.48033000      -1.29892000      -0.10241800      -0.49062300       0.62013000
O        8.60842000       6.27127000       1.23300000      -1.33575700       0.38397400       0.44442300      -0.12542400
O        8.34981000       7.99351000       3.54484000      -1.25042500       0.32759900       3.06862700      -1.26931200
O        1.90795000       7.78727000      27.19770000      -1.34750800       0.46591200      -1.98677200       0.56268100
O        7.13027000       7.50071000      29.20340000      -1.33187600      -0.08193400       0.60563400      -0.01557500
O        2.64922000       1.77535000      22.69670000      -1.28180900      -2.37697800      -0.22694400       0.27346500
O        5.65655000       1.67412000      23.24460000      -1.30975700       1.64918000       2.22302100      -0.05055500
O        2.78717000       7.56426000       0.44629000      -1.31443700      -0.53643200       0.35611000       0.61728000
O        4.79298000       6.15092000      29.69520000      -1.36737700       0.23183000       0.30053300       1.01893400
O        2.53256000       5.03751000      26.47260000      -1.33088900      -0.28895500      -0.90807600       0.75815400
O        5.61831000       2.40893000       0.85269000      -1.31780700      -0.99719900       1.31560400       1.02071200
O        7.44998000       1.23922000      26.51890000      -1.27099300      -0.40146400       0.65831400      -0.52710200
O        9.07838000       4.61627000      24.94890000      -1.31062300       0.10845400       0.65881700      -1.30362900
O        4.80758000       8.54255000      27.23710000      -1.31804400       0.86943100      -0.71656300       1.08223600
O        4.48651000       6.54288000       5.49654000      -1.30206300       0.96864200       1.34466200       1.23140800
O        9.82602000       7.70922000       6.54340000      -1.30214900       0.49588800      -0.21187200       0.31851200
O        1.44303000       1.08591000      29.67060000      -1.35862400      -1.39782500       2.07073800      -0.31122300
O        1.23788000       5.97225000       1.94320000      -1.33903800      -0.60903600      -0.02447400       0.05467000
O        7.33254000       1.60753000       6.69009000      -1.32593400      -0.55713300       0.20616300       0.04282400
O        8.42103000       2.13181000      23.44120000      -1.34333200      -0.50577400      -0.94748700      -0.19747600
O        7.08987000       6.74215000       6.52014000      -1.30491400      -0.50867000       2.04016700      -0.34299000
O        7.13278000       3.48606000       3.95113000      -1.27777500       0.27169300       0.27297100       2.19758000
O        9.78215000       1.44619000       5.49770000      -1.30255000      -0.00856400      -1.00475400       1.38481200
O        8.97527000       6.55233000      27.52880000      -1.29823400      -1.53071100       1.01942100      -0.37917000
O        9.04890000       3.76719000      27.72460000      -1.26624600      -0.11190100      -0.38717600       0.55699800
O        1.63499000       1.70835000       3.74193000      -1.31626400      -0.47578000       0.27590700       0.95578700
O        5.07479000       5.33761000      27.10580000      -1.37037800       0.35874800       0.02900100       0.15442600
O        4.13406000       4.58148000       2.05954000      -1.30819700       0.68672800       0.66967100      -0.57374000
O        2.67131000       8.74788000       6.16711000      -1.29550400       0.59022200       0.39911200       2.16424400
O        9.00267000       0.90970000       0.64541000      -1.31159600       0.18854200       0.51912500       0.23827100
O        5.21259000       7.99127000      24.29300000      -1.34787400      -1.93912900       1.37952700      -0.42585400
O        0.06234000       1.25906000      27.28350000      -1.36222900       0.82055000       0.15951500       0.26783500
O        2.87931000       6.49419000      23.97400000      -1.34887800      -0.07943700      -0.53073700      -0.39253600
O        6.33108000       5.38740000      24.61860000      -1.37410300      -2.98799300       1.35585000       0.03529000
O        7.87352000       3.47201000       1.48152000      -1.39225400       1.26123700      -0.07396500      -3.05796600
H        1.56826000       3.04058000       7.74685000       0.61692400       0.39929900      -0.72230600       0.46352700
H        1.81003000       4.18735000       6.83221000       0.66329500       1.33240800       0.94992000      -1.09658300
H        7.72259000       3.28660000       6.82842000       0.69342600       0.97396500       0.68593800       0.37759200
H        9.00314000       4.34262000       7.05933000       0.66109800      -0.47206600      -0.76655100      -0.17031900
H        4.34446000       6.21943000       2.90087000       0.65590200      -0.37786300       0.10490800      -0.10213400
H        2.03874000       7.46051000       3.56825000       0.66808800       2.39768100      -1.30880300      -0.81739400
H        1.91749000       3.69599000      25.63410000       0.67461000       0.28168600      -0.14552300       0.42316500
H        1.83714000       2.62623000      24.51090000       0.64719600       0.19918300      -0.22328800      -0.23567200
H        1.85999000       2.66380000       2.07339000       0.66977800      -0.46603200      -0.92970400       0.86206200
H        1.86968000       2.48026000       0.49724000       0.67927000       0.24609800       1.03196000       1.49196200
H        4.39713000       5.15544000       6.22347000       0.64937200      -0.43474200      -0.79688900      -0.70239500
H        3.69108000       1.32673000      27.52480000       0.66126300       0.54598000      -1.99140000       0.00396700
H        3.32192000       1.95180000       4.38939000       0.69484000      -1.49469100       0.32638400      -1.04537600
H        0.25943000       4.57029000      28.57280000       0.63012600       0.31058200       0.53702300       0.18655500
H        5.72671000       4.12961000      27.95650000       0.67632900       0.25666700       0.44861800      -0.28205500
H        4.31404000       4.15495000       7.34532000       0.60699500       0.10723400      -0.56775900       0.71185400
H        0.07677000       6.26182000      22.50220000       0.60258400       0.18181900       0.13418100       0.04569600
H        8.23264000       0.17418000      23.39460000       0.61621400       0.09150500      -0.28538800       0.37909500
H        7.31965000       7.91493000      22.76950000       0.59858600       0.95712400      -0.24389700       0.44572300
H        6.25048000       7.20958000      29.48400000       0.65858700      -0.74151300      -0.19249900      -0.01373100
H        5.87231000       3.14417000      29.09060000       0.66883200      -0.05321700      -0.55688800       0.91917600
H        3.22994000       8.05090000       1.15691000       0.65781000       0.36644000       0.00623400      -0.12092500
H        5.71652000       1.37867000       2.67534000       0.61298300       0.48208600      -0.88522600       1.62798800
H        5.23826000       1.20771000       4.23420000       0.67154900       0.98399400       0.06501200      -1.16988600
H        4.29718000       2.64956000      27.34130000       0.60612100       0.05324900       0.12895500       0.01660900
H        4.23784000       2.80060000       5.33096000       0.70838600       0.04767500       0.73614400       0.47606300
H        4.59620000       4.43073000      22.36600000       0.62571500       0.02712900      -0.15915300      -0.79423200
H        4.60290000       3.25657000      23.41810000       0.68611000      -0.01567100       0.50362700      -0.37785600
H        0.29148000       6.08381000      28.77100000       0.62744000       1.43948600      -1.79506600       0.00107100
H        4.76056000       7.57363000       3.56950000       0.59048900      -1.84246200      -1.00207500      -1.92976600
H        9.30255000       4.54611000       4.33029000       0.62683600       0.10973600       0.07412600      -0.04614700
H        8.36454000       5.33312000       1.13796000       0.66564600      -0.10824500       0.04177600       0.65248800
H        8.43183000       6.65360000       2.12305000       0.67233200      -0.39114900      -0.37562900      -0.34247300
H        7.54289000       8.59086000       3.64892000       0.64027700       0.63296000      -1.10898900      -0.10256100
H        8.94249000       8.69420000       3.06699000       0.61247600      -1.10936600      -2.06203100       1.14045300
H        2.80308000       7.84422000      27.57700000       0.67041200      -0.43308100       0.72094200      -0.61148800
H        1.55268000       8.59342000      26.86640000       0.66552300       0.03260100       1.27296700       0.01618800
H        0.33653000       5.36765000       3.76267000       0.65289500       0.18030700       0.33284800      -0.55472800
H        7.63847000       7.03553000      29.87500000       0.65015900       0.81558100      -0.24391700       0.32353800
H        3.37152000       1.46534000      22.16640000       0.61258000       1.32942600      -0.35339200      -0.39325300
H        1.87995000       1.31052000      22.23300000       0.58511500       0.90089200       0.63028300       0.80658200
H        9.87160000       7.24516000      23.59220000       0.69160000      -1.15052400       1.24184100       0.17544600
H        6.62115000       2.00383000      23.30370000       0.62574300      -1.57436300      -0.66587900      -0.21788500
H        5.69935000       0.72481000      23.23560000       0.64212800      -0.28229800      -1.10925000       0.49338100
H        2.22017000       6.96970000       1.01557000       0.66752700      -0.01872700      -0.09755500      -0.59623100
H        4.05062000       6.76641000      29.88740000       0.68249300      -0.17409000      -0.14053600       0.02524500
H        2.45299000       5.73848000      25.84550000       0.68697500      -0.04593600       1.34650800      -0.94417900
H        5.10887000       3.16091000       1.30227000       0.61846700       0.10378500      -1.14411500      -0.75747900
H        1.90138000       5.26159000      27.19300000       0.66659700       0.10627700      -0.02382300       0.37421000
H        4.80672000       5.99155000      28.75690000       0.66999000      -0.02267800      -0.27640400      -0.91869500
H        6.49985000       2.82006000       1.01026000       0.66600300       0.28065200      -0.36186300      -0.22733000
H        7.10128000       2.00745000      27.01560000       0.65291500       0.10901200      -0.28228700       0.22041800
H        7.12577000       1.43853000      25.61990000       0.61342700       0.33218300      -0.35379800       0.42857000
H        9.91321000       4.18035000      25.17370000       0.65737700       0.07721100      -0.24820200       0.31325200
H        4.95782000       8.47195000      26.28680000       0.67397300       0.19048600      -0.27302100      -0.25287800
H        3.95217000       7.32363000       5.81931000       0.64915100       0.26725000      -0.74489700      -0.30612700
H        9.36102000       5.27723000      24.25420000       0.63629500      -0.02095100      -0.58797700       0.87951000
H        5.41926000       6.71103000       5.84260000       0.64618300      -0.96371000      -0.08792500      -0.52299800
H        8.87989000       7.46948000       6.52694000       0.65930200       0.18461000      -0.35605900      -0.06338900
H        0.14748000       7.13066000       7.19153000       0.61633700      -0.62665000       0.57195300      -0.44219500
H        1.78937000       0.21802000      29.75280000       0.68577400       0.71282200      -1.72354300       0.01683700
H        1.24682000       5.09716000       1.54426000       0.67054000       0.47960500      -0.72709000      -0.36674500
H        0.94856000       1.18979000      28.82500000       0.68280300       0.65210800      -0.38068800       0.09346500
H        0.31839000       6.22975000       1.72905000       0.67869000       0.01434900       0.29258500      -0.10730400
H        8.39707000       0.39527000       0.11881000       0.64049300      -0.67432100      -0.39978400      -0.27058300
H        8.16785000       1.29294000       6.29225000       0.66712900      -0.02041600      -0.20550900      -0.03304900
H        6.92077000       0.93720000       7.26203000       0.61414200       0.38653800       0.18719400      -0.21393700
H        8.82610000       2.96663000      23.70290000       0.66618900       0.24444200       0.37227000       0.01216700
H        7.31117000       5.83752000       6.67146000       0.66740600       0.51155100      -1.84516900       0.30360000
H        6.95718000       2.54195000       4.11494000       0.63387300      -0.27616600      -0.27997000      -0.53611100
H        6.84190000       7.11295000       7.38460000       0.59650500       0.04244300      -0.22457700       0.19735700
H        8.67445000       1.86716000      22.52430000       0.60457700       0.18891800       0.79582300       0.20211400
H        7.31307000       3.77690000       4.88975000       0.63179600      -0.02222400       0.08838000      -1.38019100
H       10.05090000       2.14238000       6.12489000       0.63550500       0.00471700      -0.21710200      -0.10094400
H        9.99675000       0.55607000       5.95894000       0.67152300      -0.12281500       1.31128700      -0.69038900
H        5.59125000       8.11171000      27.68490000       0.64502900      -1.17410300       0.86329700      -0.93121200
H        8.18058000       4.02928000      28.08360000       0.65141100       0.03005300       0.09258900      -0.12618500
H        1.02342000       2.12477000       4.42105000       0.63909900       0.82629600      -0.78818800      -1.32066500
H        9.15436000       2.88502000      28.10780000       0.61322500       0.11260300      -0.04882200      -0.27072000
H        8.88500000       6.08228000      26.68410000       0.64320300       0.07199800       0.03698200       0.30148300
H        1.43243000       0.71663000       3.83766000       0.65781600       0.26100200       0.80284000      -0.31802700
H        4.13826000       5.18066000      26.87230000       0.68882300      -0.27700500       0.02891800      -0.35757000
H        5.62441000       5.35640000      26.29630000       0.67943100      -0.30580400       0.12006100      -0.22275500
H        1.14063000       7.68098000       4.78353000       0.64386900       0.03762000       0.21962500      -0.98985000
H        3.33263000       4.06655000       2.02509000       0.67226100      -0.92449000      -0.84826700       0.08256900
H        3.12642000       0.71826000       5.71754000       0.66836700      -0.04567500      -0.25941200       0.36868300
H        4.00668000       5.05997000       1.21659000       0.64588100       0.66077400       0.05858600       0.07457700
H        2.80957000       0.17422000       7.15748000       0.57529200      -0.31434200      -0.46839600      -1.95620100
H        9.80342000       0.96701000       0.09586000       0.65743400       0.35145900      -0.04613700       0.39832400
H        8.11255000       7.05839000      27.67500000       0.64223200       1.47211300      -0.99629800      -0.00186100
H        4.42218000       7.53328000      23.90920000       0.66506800       0.39970600       0.12552300       0.58995600
H        5.93099000       7.40613000      24.21950000       0.67842300       1.39103400      -1.69807900       0.11458600
H        0.39211000       1.96210000      26.70260000       0.68852900       0.28580800       0.01361500      -0.20333300
H        9.32983000       1.05453000      26.95510000       0.68545000      -0.96030000      -0.20243000      -0.27530900
H        1.94589000       6.65630000      23.64850000       0.68193700       0.94986600      -0.48893200       0.27091000
H        3.18785000       5.60941000      23.65190000       0.64666400      -0.50283400       0.86285300       0.21752700