 vasp.6.4.3 19Mar24 (build Sep  4 2024 12:23:58) complex                         
 executed on              LinuxNV date 2025.10.06  13:12:30
 running    4 mpi-ranks, with    1 threads/rank, on    1 nodes
 distrk:  each k-point on    2 cores,    2 groups
 distr:  one band on NCORE=   1 cores,    2 groups
 OpenACC runtime initialized ...    4 GPUs detected


--------------------------------------------------------------------------------------------------------


 INCAR:
   ENCUT = 800.000000
   SIGMA = 0.100000
   EDIFF = 1.00e-07
   ALGO = A
   METAGGA = R2SCAN
   PREC = Accurate
   IBRION = -1
   ICHARG = 1
   IDIPOL = 3
   ISMEAR = 0
   ISTART = 1
   KPAR = 2
   NELM = 300
   NPAR = 2
   NCORE = 1
   DIPOL = 0.5 0.5 0.5
   LASPH = .TRUE.
   LDIPOL = .TRUE.
   LVHAR = .TRUE.
   LMIXTAU = .TRUE.
   LVACPOTAV = .TRUE.
   LREAL = Auto

 POTCAR:    PAW_PBE Cu 22Jun2005                  
 POTCAR:    PAW_PBE O_h 06Feb2004                 
 POTCAR:    PAW_PBE H_h 06Feb2004                 
 POTCAR:    PAW_PBE Cu 22Jun2005                  
   VRHFIN =Cu: d10 p1                                                                               
   LEXCH  = PE                                                                                      
   EATOM  =  1390.9808 eV,  102.2342 Ry                                                             
                                                                                                    
   TITEL  = PAW_PBE Cu 22Jun2005                                                                    
   LULTRA =        F    use ultrasoft PP ?                                                          
   IUNSCR =        1    unscreen: 0-lin 1-nonlin 2-no                                               
   RPACOR =    2.000    partial core radius                                                         
   POMASS =   63.546; ZVAL   =   11.000    mass and valenz                                          
   RCORE  =    2.300    outmost cutoff radius                                                       
   RWIGS  =    2.200; RWIGS  =    1.164    wigner-seitz radius (au A)                               
   ENMAX  =  295.446; ENMIN  =  221.585 eV                                                          
   ICORE  =        3    local potential                                                             
   LCOR   =        T    correct aug charges                                                         
   LPAW   =        T    paw PP                                                                      
   EAUG   =  586.980                                                                                
   DEXC   =    0.000                                                                                
   RMAX   =    2.344    core radius for proj-oper                                                   
   RAUG   =    1.300    factor for augmentation sphere                                              
   RDEP   =    2.302    radius for radial grids                                                     
   RDEPT  =    1.771    core radius for aug-charge                                                  
                                                                                                    
   Atomic configuration                                                                             
    9 entries                                                                                       
     n  l   j            E        occ.                                                              
     1  0  0.50     -8850.2468   2.0000                                                             
     2  0  0.50     -1062.3498   2.0000                                                             
     2  1  1.50      -916.8226   6.0000                                                             
     3  0  0.50      -114.6929   2.0000                                                             
     3  1  1.50       -72.1325   6.0000                                                             
     3  2  2.50        -5.0394  10.0000                                                             
     4  0  0.50        -4.6097   1.0000                                                             
     4  1  0.50        -4.0817   0.0000                                                             
     4  3  2.50        -1.3606   0.0000                                                             
   Description                                                                                      
     l       E           TYP  RCUT    TYP  RCUT                                                     
     2     -5.0393973     23  2.200                                                                 
     2     10.8846608     23  2.200                                                                 
     0     -4.6097109     23  2.200                                                                 
     0      8.2520465     23  2.200                                                                 
     1     -2.7211652     23  2.200                                                                 
     1     21.7055443     23  2.200                                                                 
     3      2.7211652     23  2.300                                                                 
  local pseudopotential read in
  partial core-charges read in
  partial kinetic energy density read in
  atomic valenz-charges read in
  non local Contribution for L=            2  read in
    real space projection operators read in
  non local Contribution for L=            2  read in
    real space projection operators read in
  non local Contribution for L=            0  read in
    real space projection operators read in
  non local Contribution for L=            0  read in
    real space projection operators read in
  non local Contribution for L=            1  read in
    real space projection operators read in
  non local Contribution for L=            1  read in
    real space projection operators read in
    PAW grid and wavefunctions read in
 
   number of l-projection  operators is LMAX  =            6
   number of lm-projection operators is LMMAX =           18
 
 POTCAR:    PAW_PBE O_h 06Feb2004                 
   VRHFIN =O: s2p4                                                                                  
   LEXCH  = PE                                                                                      
   EATOM  =   432.3788 eV,   31.7789 Ry                                                             
                                                                                                    
   TITEL  = PAW_PBE O_h 06Feb2004                                                                   
   LULTRA =        F    use ultrasoft PP ?                                                          
   IUNSCR =        1    unscreen: 0-lin 1-nonlin 2-no                                               
   RPACOR =    0.800    partial core radius                                                         
   POMASS =   16.000; ZVAL   =    6.000    mass and valenz                                          
   RCORE  =    1.100    outmost cutoff radius                                                       
   RWIGS  =    1.400; RWIGS  =    0.741    wigner-seitz radius (au A)                               
   ENMAX  =  700.000; ENMIN  =  500.000 eV                                                          
   ICORE  =        2    local potential                                                             
   LCOR   =        T    correct aug charges                                                         
   LPAW   =        T    paw PP                                                                      
   EAUG   =  888.804                                                                                
   DEXC   =    0.000                                                                                
   RMAX   =    1.128    core radius for proj-oper                                                   
   RAUG   =    1.300    factor for augmentation sphere                                              
   RDEP   =    1.125    radius for radial grids                                                     
   RDEPT  =    1.088    core radius for aug-charge                                                  
                                                                                                    
   Atomic configuration                                                                             
    4 entries                                                                                       
     n  l   j            E        occ.                                                              
     1  0  0.50      -514.6923   2.0000                                                             
     2  0  0.50       -23.9615   2.0000                                                             
     2  1  0.50        -9.0305   4.0000                                                             
     3  2  1.50        -9.5241   0.0000                                                             
   Description                                                                                      
     l       E           TYP  RCUT    TYP  RCUT                                                     
     0    -23.9615319     23  1.100                                                                 
     0    -25.3221145     23  1.100                                                                 
     1     -9.0304911     23  1.100                                                                 
     1     -5.4802209     23  1.100                                                                 
     2     -9.5240782      7  1.100                                                                 
  local pseudopotential read in
  partial core-charges read in
  partial kinetic energy density read in
  atomic valenz-charges read in
  non local Contribution for L=            0  read in
    real space projection operators read in
  non local Contribution for L=            0  read in
    real space projection operators read in
  non local Contribution for L=            1  read in
    real space projection operators read in
  non local Contribution for L=            1  read in
    real space projection operators read in
    PAW grid and wavefunctions read in
 
   number of l-projection  operators is LMAX  =            4
   number of lm-projection operators is LMMAX =            8
 
 POTCAR:    PAW_PBE H_h 06Feb2004                 
   VRHFIN =H: ultrasoft test                                                                        
   LEXCH  = PE                                                                                      
   EATOM  =    12.4884 eV,    0.9179 Ry                                                             
                                                                                                    
   TITEL  = PAW_PBE H_h 06Feb2004                                                                   
   LULTRA =        F    use ultrasoft PP ?                                                          
   IUNSCR =        0    unscreen: 0-lin 1-nonlin 2-no                                               
   RPACOR =    0.000    partial core radius                                                         
   POMASS =    1.000; ZVAL   =    1.000    mass and valenz                                          
   RCORE  =    0.800    outmost cutoff radius                                                       
   RWIGS  =    0.700; RWIGS  =    0.370    wigner-seitz radius (au A)                               
   ENMAX  =  700.000; ENMIN  =  350.000 eV                                                          
   RCLOC  =    0.701    cutoff for local pot                                                        
   LCOR   =        T    correct aug charges                                                         
   LPAW   =        T    paw PP                                                                      
   EAUG   = 1000.000                                                                                
   RMAX   =    0.819    core radius for proj-oper                                                   
   RAUG   =    1.000    factor for augmentation sphere                                              
   RDEP   =    0.817    radius for radial grids                                                     
   RDEPT  =    0.817    core radius for aug-charge                                                  
                                                                                                    
   Atomic configuration                                                                             
    2 entries                                                                                       
     n  l   j            E        occ.                                                              
     1  0  0.50        -6.4927   1.0000                                                             
     2  1  0.50        -3.4015   0.0000                                                             
   Description                                                                                      
     l       E           TYP  RCUT    TYP  RCUT                                                     
     0     -6.4927493     23  0.800                                                                 
     0      6.8029130     23  0.800                                                                 
     1     -6.8029130     23  0.800                                                                 
  local pseudopotential read in
  atomic valenz-charges read in
  non local Contribution for L=            0  read in
    real space projection operators read in
  non local Contribution for L=            0  read in
    real space projection operators read in
  non local Contribution for L=            1  read in
    real space projection operators read in
    PAW grid and wavefunctions read in
 
   number of l-projection  operators is LMAX  =            3
   number of lm-projection operators is LMMAX =            5
 
 Optimization of the real space projectors (new method)

 maximal supplied QI-value         = 16.25
 optimisation between [QCUT,QGAM] = [ 14.46, 28.93] = [ 58.58,234.33] Ry 
 Optimized for a Real-space Cutoff    1.35 Angstroem

   l    n(q)    QCUT    max X(q) W(low)/X(q) W(high)/X(q)  e(spline) 
   2     11    14.464     4.610    0.56E-04    0.10E-03    0.52E-06
   2     11    14.464     8.522    0.88E-04    0.16E-03    0.84E-06
   0     12    14.464    51.609    0.44E-04    0.29E-04    0.63E-06
   0     12    14.464    27.747    0.38E-04    0.27E-04    0.60E-06
   1     11    14.464    20.408    0.64E-04    0.66E-04    0.14E-06
   1     11    14.464    13.425    0.56E-04    0.59E-04    0.13E-06
 Optimization of the real space projectors (new method)

 maximal supplied QI-value         = 34.20
 optimisation between [QCUT,QGAM] = [ 14.37, 28.73] = [ 57.79,231.16] Ry 
 Optimized for a Real-space Cutoff    0.98 Angstroem

   l    n(q)    QCUT    max X(q) W(low)/X(q) W(high)/X(q)  e(spline) 
   0      8    14.366   280.207    0.54E-04    0.14E-03    0.22E-06
   0      8    14.366   228.978    0.55E-04    0.14E-03    0.22E-06
   1      8    14.366    86.127    0.24E-03    0.25E-03    0.26E-06
   1      8    14.366    65.368    0.24E-03    0.24E-03    0.26E-06
 Optimization of the real space projectors (new method)

 maximal supplied QI-value         = 47.24
 optimisation between [QCUT,QGAM] = [ 14.17, 28.82] = [ 56.25,232.56] Ry 
 Optimized for a Real-space Cutoff    0.95 Angstroem

   l    n(q)    QCUT    max X(q) W(low)/X(q) W(high)/X(q)  e(spline) 
   0      8    14.173    34.671    0.25E-03    0.45E-03    0.25E-06
   0      8    14.173    17.046    0.24E-03    0.43E-03    0.25E-06
   1      8    14.173     1.978    0.58E-04    0.22E-03    0.31E-06
 -----------------------------------------------------------------------------
|                                                                             |
|               ----> ADVICE to this user running VASP <----                  |
|                                                                             |
|     You enforced a specific xc type in the INCAR file but a different       |
|     type was found in the POTCAR file.                                      |
|     I HOPE YOU KNOW WHAT YOU ARE DOING!                                     |
|                                                                             |
 -----------------------------------------------------------------------------

  PAW_PBE Cu 22Jun2005                  :
 energy of atom  1       EATOM=-1390.9808
 kinetic energy error for atom=    0.0007 (will be added to EATOM!!)
  PAW_PBE O_h 06Feb2004                 :
 energy of atom  2       EATOM= -432.3788
 kinetic energy error for atom=    0.0500 (will be added to EATOM!!)
  PAW_PBE H_h 06Feb2004                 :
 energy of atom  3       EATOM=  -12.4884
 kinetic energy error for atom=    0.0035 (will be added to EATOM!!)
 
 
 POSCAR: Cu O  H
  positions in cartesian coordinates
  No initial velocities read in


 exchange-correlation table for R2SCAN
   RHO(1)=    0.500       N(1)  =     2000
   RHO(2)=  100.500       N(2)  =     4000
 


--------------------------------------------------------------------------------------------------------


 ion  position               nearest neighbor table
   1  0.691  0.135  0.383-   5 2.46  16 2.54   2 2.54  17 2.55  18 2.57   4 2.59  15 2.62   8 2.65
                            32 2.75
   2  0.941  0.140  0.385-   3 2.33   6 2.45  19 2.45  18 2.48   5 2.49  29 2.53   1 2.54  13 2.61
                            16 2.63
   3  0.170  0.122  0.387-   2 2.33  13 2.41  19 2.42  30 2.43  14 2.49  20 2.56   6 2.60   4 2.70
                             7 2.71
   4  0.436  0.128  0.383-  17 2.41  14 2.48  15 2.48   7 2.56   1 2.59  20 2.66   3 2.70   8 2.72
                            31 2.72
   5  0.809  0.378  0.387-  21 2.45   1 2.46   8 2.48  22 2.48   2 2.49   6 2.50  18 2.50  12 2.58
                             9 2.60
   6  0.055  0.386  0.386-   9 2.39  22 2.41   2 2.45  19 2.46   5 2.50  10 2.54  23 2.58   3 2.60
                             7 2.61
   7  0.312  0.382  0.381-   4 2.56  11 2.57   8 2.58   6 2.61  24 2.65  10 2.66  23 2.70   3 2.71
                            20 2.73
   8  0.565  0.399  0.386-  12 2.36  21 2.42  11 2.46   5 2.48  17 2.50  24 2.53   7 2.58   1 2.65
                             4 2.72
   9  0.947  0.628  0.387-  10 2.31   6 2.39  26 2.41  22 2.45  13 2.48  25 2.56   5 2.60  16 2.62
                            12 2.71
  10  0.175  0.639  0.386-   9 2.31  13 2.38  26 2.45  27 2.45   6 2.54  23 2.55  14 2.58  11 2.65
                             7 2.66
  11  0.435  0.636  0.388-  28 2.36  27 2.37   8 2.46  15 2.47  12 2.52  14 2.56   7 2.57  24 2.58
                            10 2.65
  12  0.681  0.629  0.380-   8 2.36  11 2.52  15 2.57  16 2.58   5 2.58  28 2.65   9 2.71  25 2.76
                            21 2.76
  13  0.062  0.877  0.386-  10 2.38   3 2.41   9 2.48  29 2.49  30 2.49  14 2.51  16 2.55  26 2.56
                             2 2.61
  14  0.309  0.888  0.388-   4 2.48  31 2.49  30 2.49  15 2.49   3 2.49  27 2.50  13 2.51  11 2.56
                            10 2.58
  15  0.554  0.881  0.384-  11 2.47   4 2.48  14 2.49  28 2.51  12 2.57  31 2.59  16 2.60  32 2.60
                             1 2.62
  16  0.811  0.881  0.384-   1 2.54  13 2.55  29 2.55  12 2.58  15 2.60  32 2.61   9 2.62   2 2.63
                            25 2.65
  17  0.548  0.212  0.428-  24 2.41   4 2.41  20 2.47   8 2.50  31 2.54   1 2.55  21 2.57  40 2.64
                            32 2.71  33 2.73  18 2.76  37 2.77
  18  0.819  0.202  0.431-  29 2.36  19 2.40   2 2.48   5 2.50  34 2.55  38 2.57   1 2.57  22 2.60
                            32 2.61  37 2.64  21 2.65  17 2.76
  19  0.055  0.221  0.430-  18 2.40  22 2.42   3 2.42   2 2.45   6 2.46  29 2.53  20 2.54  38 2.54
                            23 2.56  30 2.56  39 2.62  35 2.67
  20  0.305  0.210  0.432-  24 2.47  17 2.47  39 2.50  30 2.51  19 2.54  36 2.55  23 2.55   3 2.56
                            40 2.57  31 2.60   4 2.66   7 2.73
  21  0.682  0.459  0.431-   8 2.42   5 2.45  25 2.52  28 2.54  24 2.54  44 2.55  17 2.57  37 2.58
                            41 2.60  22 2.62  18 2.65  12 2.76
  22  0.941  0.463  0.431-   6 2.41  19 2.42  26 2.43   9 2.45   5 2.48  23 2.51  25 2.54  42 2.56
                            41 2.60  18 2.60  38 2.61  21 2.62
  23  0.189  0.467  0.432-  27 2.40  24 2.47  26 2.50  43 2.51  22 2.51  42 2.52  20 2.55  10 2.55
                            19 2.56  39 2.58   6 2.58   7 2.70
  24  0.432  0.450  0.432-  17 2.41  20 2.47  23 2.47  40 2.49   8 2.53  43 2.53  21 2.54  27 2.56
                            11 2.58  44 2.59  28 2.65   7 2.65
  25  0.807  0.707  0.432-  32 2.45  28 2.50  26 2.52  21 2.52  48 2.53  22 2.54  41 2.55   9 2.56
                            45 2.58  29 2.63  16 2.65  12 2.76
  26  0.055  0.706  0.432-   9 2.41  22 2.43  10 2.45  23 2.50  45 2.51  25 2.52  42 2.53  13 2.56
                            27 2.57  46 2.58  30 2.58  29 2.61
  27  0.308  0.703  0.430-  11 2.37  23 2.40  10 2.45  14 2.50  31 2.56  24 2.56  28 2.56  26 2.57
                            43 2.59  46 2.60  47 2.65  30 2.66
  28  0.561  0.711  0.430-  11 2.36  32 2.43  31 2.49  25 2.50  15 2.51  21 2.54  27 2.56  47 2.62
                            48 2.64  24 2.65  44 2.65  12 2.65
  29  0.935  0.968  0.430-  18 2.36  30 2.45  13 2.49  19 2.53   2 2.53  32 2.54  16 2.55  34 2.59
                            26 2.61  35 2.61  25 2.63  45 2.67
  30  0.176  0.965  0.432-   3 2.43  29 2.45  35 2.48  13 2.49  14 2.49  20 2.51  19 2.56  26 2.58
                            46 2.59  36 2.59  31 2.63  27 2.66
  31  0.435  0.954  0.434-  47 2.47  14 2.49  28 2.49  36 2.49  33 2.51  32 2.53  17 2.54  27 2.56
                            15 2.59  20 2.60  30 2.63   4 2.72
  32  0.685  0.948  0.433-  28 2.43  25 2.45  48 2.47  31 2.53  33 2.53  29 2.54  34 2.56  15 2.60
                            16 2.61  18 2.61  17 2.71   1 2.75
  33  0.562  0.042  0.479-  31 2.51  32 2.53  47 2.54  36 2.54  40 2.54  48 2.54  52 2.54  63 2.54
                            37 2.54  49 2.54  34 2.54  17 2.73
  34  0.813  0.042  0.479-  35 2.54  45 2.54  38 2.54  48 2.54  50 2.54  64 2.54  37 2.54  49 2.54
                            33 2.54  18 2.55  32 2.56  29 2.59
  35  0.062  0.042  0.479-  30 2.48  34 2.54  45 2.54  46 2.54  61 2.54  38 2.54  50 2.54  39 2.54
                            51 2.54  36 2.54  29 2.61  19 2.67
  36  0.313  0.042  0.479-  31 2.49  33 2.54  47 2.54  46 2.54  62 2.54  40 2.54  39 2.54  52 2.54
                            51 2.54  35 2.54  20 2.55  30 2.59
  37  0.688  0.292  0.479-  38 2.54  40 2.54  41 2.54  44 2.54  53 2.54  56 2.54  33 2.54  34 2.54
                            49 2.54  21 2.58  18 2.64  17 2.77
  38  0.937  0.292  0.479-  41 2.54  42 2.54  37 2.54  53 2.54  34 2.54  54 2.54  39 2.54  35 2.54
                            50 2.54  19 2.54  18 2.57  22 2.61
  39  0.187  0.292  0.479-  20 2.50  42 2.54  43 2.54  54 2.54  55 2.54  38 2.54  35 2.54  36 2.54
                            51 2.54  40 2.54  23 2.58  19 2.62
  40  0.438  0.292  0.479-  24 2.49  44 2.54  37 2.54  43 2.54  56 2.54  33 2.54  55 2.54  36 2.54
                            52 2.54  39 2.54  20 2.57  17 2.64
  41  0.813  0.542  0.479-  38 2.54  42 2.54  37 2.54  45 2.54  57 2.54  48 2.54  53 2.54  60 2.54
                            44 2.54  25 2.55  22 2.60  21 2.60
  42  0.062  0.542  0.479-  23 2.52  26 2.53  41 2.54  38 2.54  39 2.54  45 2.54  57 2.54  46 2.54
                            54 2.54  58 2.54  43 2.54  22 2.56
  43  0.313  0.542  0.479-  23 2.51  24 2.53  44 2.54  40 2.54  39 2.54  47 2.54  46 2.54  55 2.54
                            59 2.54  58 2.54  42 2.54  27 2.59
  44  0.562  0.542  0.479-  40 2.54  43 2.54  37 2.54  47 2.54  59 2.54  48 2.54  56 2.54  60 2.54
                            41 2.54  21 2.55  24 2.59  28 2.65
  45  0.937  0.792  0.479-  26 2.51  34 2.54  48 2.54  35 2.54  41 2.54  64 2.54  46 2.54  42 2.54
                            61 2.54  57 2.54  25 2.58  29 2.67
  46  0.187  0.792  0.479-  35 2.54  36 2.54  45 2.54  42 2.54  43 2.54  58 2.54  61 2.54  62 2.54
                            47 2.54  26 2.58  30 2.59  27 2.60
  47  0.438  0.792  0.479-  31 2.47  33 2.54  48 2.54  44 2.54  36 2.54  63 2.54  43 2.54  59 2.54
                            62 2.54  46 2.54  28 2.62  27 2.65
  48  0.688  0.792  0.479-  32 2.47  25 2.53  45 2.54  47 2.54  33 2.54  34 2.54  41 2.54  44 2.54
                            60 2.54  63 2.54  64 2.54  28 2.64
  49  0.688  0.125  0.525-  66 2.48  65 2.51  50 2.54  52 2.54  53 2.54  56 2.54  63 2.54  64 2.54
                            37 2.54  34 2.54  33 2.54  80 2.62
  50  0.937  0.125  0.525-  66 2.45  53 2.54  54 2.54  64 2.54  49 2.54  61 2.54  34 2.54  51 2.54
                            35 2.54  38 2.54  67 2.58  77 2.58
  51  0.187  0.125  0.525-  67 2.50  78 2.52  54 2.54  55 2.54  61 2.54  62 2.54  50 2.54  39 2.54
                            35 2.54  36 2.54  52 2.54  68 2.54
  52  0.438  0.125  0.525-  79 2.50  56 2.54  63 2.54  49 2.54  55 2.54  62 2.54  33 2.54  40 2.54
                            36 2.54  51 2.54  68 2.57  65 2.62
  53  0.813  0.375  0.525-  50 2.54  54 2.54  49 2.54  38 2.54  57 2.54  37 2.54  60 2.54  41 2.54
                            56 2.54  66 2.54  69 2.56  70 2.69
  54  0.062  0.375  0.525-  53 2.54  50 2.54  51 2.54  38 2.54  39 2.54  57 2.54  58 2.54  42 2.54
                            55 2.54  67 2.55  70 2.58  71 2.67
  55  0.313  0.375  0.525-  72 2.46  56 2.54  52 2.54  51 2.54  40 2.54  39 2.54  59 2.54  58 2.54
                            43 2.54  54 2.54  71 2.59  68 2.64
  56  0.562  0.375  0.525-  72 2.44  69 2.52  52 2.54  55 2.54  49 2.54  40 2.54  59 2.54  37 2.54
                            60 2.54  44 2.54  53 2.54  65 2.56
  57  0.937  0.625  0.525-  74 2.50  73 2.51  60 2.54  53 2.54  64 2.54  41 2.54  58 2.54  54 2.54
                            61 2.54  42 2.54  45 2.54  70 2.72
  58  0.187  0.625  0.525-  74 2.51  57 2.54  54 2.54  55 2.54  61 2.54  62 2.54  46 2.54  42 2.54
                            43 2.54  59 2.54  71 2.56  75 2.57
  59  0.438  0.625  0.525-  75 2.42  72 2.53  60 2.54  56 2.54  63 2.54  44 2.54  55 2.54  62 2.54
                            47 2.54  43 2.54  58 2.54  76 2.56
  60  0.688  0.625  0.525-  73 2.47  69 2.53  57 2.54  59 2.54  53 2.54  56 2.54  63 2.54  64 2.54
                            48 2.54  44 2.54  41 2.54  76 2.57
  61  0.062  0.875  0.525-  74 2.47  64 2.54  50 2.54  51 2.54  35 2.54  57 2.54  45 2.54  58 2.54
                            46 2.54  62 2.54  78 2.60  77 2.60
  62  0.313  0.875  0.525-  75 2.52  78 2.52  63 2.54  52 2.54  51 2.54  36 2.54  59 2.54  58 2.54
                            47 2.54  46 2.54  61 2.54  79 2.56
  63  0.562  0.875  0.525-  79 2.52  76 2.53  52 2.54  62 2.54  59 2.54  49 2.54  47 2.54  33 2.54
                            60 2.54  48 2.54  64 2.54  80 2.64
  64  0.813  0.875  0.525-  73 2.53  77 2.53  61 2.54  50 2.54  57 2.54  49 2.54  45 2.54  34 2.54
                            60 2.54  48 2.54  63 2.54  80 2.55
  65  0.574  0.209  0.572-  66 2.45  88 2.46  69 2.47  49 2.51  72 2.51  85 2.52  81 2.53  79 2.54
                            80 2.56  56 2.56  52 2.62  68 2.69
  66  0.815  0.198  0.570-  77 2.43  65 2.45  50 2.45  80 2.46  49 2.48  85 2.50  53 2.54  70 2.58
                            67 2.60  69 2.66  86 2.67
  67  0.071  0.206  0.571-  68 2.42  70 2.45  78 2.48  86 2.49  51 2.50  83 2.50  87 2.51  54 2.55
                            50 2.58  66 2.60  71 2.62  77 2.62
  68  0.309  0.197  0.572-  78 2.36  67 2.42  79 2.45  87 2.48  88 2.52  51 2.54  84 2.54  52 2.57
                            72 2.57  71 2.63  55 2.64  65 2.69
  69  0.683  0.460  0.571-  65 2.47  72 2.48  73 2.48  92 2.51  56 2.52  89 2.52  60 2.53  76 2.55
                            53 2.56  85 2.62  66 2.66  70 2.70
  70  0.949  0.447  0.574-  89 2.38  90 2.43  86 2.44  67 2.45  71 2.51  66 2.58  54 2.58  74 2.61
                            73 2.67  53 2.69  69 2.70  57 2.72
  71  0.196  0.467  0.573-  90 2.45  91 2.45  72 2.48  75 2.48  70 2.51  87 2.53  74 2.55  58 2.56
                            55 2.59  67 2.62  68 2.63  54 2.67
  72  0.440  0.448  0.569-  56 2.44  55 2.46  69 2.48  71 2.48  65 2.51  88 2.52  59 2.53  75 2.53
                            68 2.57  91 2.61  76 2.64  92 2.65
  73  0.808  0.703  0.570-  60 2.47  69 2.48  80 2.48  76 2.50  57 2.51  64 2.53  89 2.53  77 2.54
                            96 2.57  74 2.57  93 2.60  70 2.67
  74  0.062  0.712  0.570-  61 2.47  93 2.50  57 2.50  58 2.51  77 2.53  71 2.55  73 2.57  78 2.59
                            70 2.61  90 2.64  94 2.68  75 2.69
  75  0.327  0.706  0.570-  76 2.38  59 2.42  71 2.48  91 2.52  62 2.52  72 2.53  79 2.55  58 2.57
                            78 2.63  95 2.64  74 2.69  94 2.71
  76  0.561  0.714  0.571-  75 2.38  73 2.50  79 2.51  80 2.51  96 2.52  63 2.53  69 2.55  95 2.55
                            59 2.56  60 2.57  92 2.61  72 2.64
  77  0.930  0.956  0.572-  80 2.37  66 2.43  93 2.47  83 2.51  74 2.53  64 2.53  73 2.54  50 2.58
                            61 2.60  67 2.62  82 2.64  78 2.69
  78  0.195  0.963  0.571-  68 2.36  67 2.48  84 2.48  79 2.49  62 2.52  51 2.52  83 2.57  74 2.59
                            61 2.60  75 2.63  94 2.68  77 2.69
  79  0.441  0.964  0.571-  81 2.44  68 2.45  78 2.49  52 2.50  76 2.51  63 2.52  65 2.54  84 2.54
                            75 2.55  62 2.56  80 2.59  95 2.66
  80  0.696  0.954  0.573-  77 2.37  96 2.45  81 2.46  66 2.46  73 2.48  76 2.51  64 2.55  65 2.56
                            79 2.59  49 2.62  63 2.64  82 2.76
  81  0.562  0.030  0.616-  95 2.41  79 2.44  96 2.44  80 2.46  84 2.51  65 2.53  88 2.54  85 2.63
                            82 2.73
  82  0.829  0.039  0.624-  83 2.33  85 2.47  86 2.48  93 2.50  96 2.61  77 2.64  81 2.73  80 2.76

  83  0.057  0.043  0.617-  82 2.33  86 2.33  67 2.50  77 2.51  93 2.51  87 2.55  78 2.57  84 2.61
                            94 2.65
  84  0.315  0.027  0.618-  95 2.46  94 2.47  78 2.48  81 2.51  79 2.54  68 2.54  87 2.61  83 2.61
                            88 2.64
  85  0.706  0.280  0.617-  82 2.47  86 2.50  66 2.50  89 2.52  65 2.52  69 2.62  81 2.63  88 2.64
                            92 2.67
  86  0.953  0.280  0.618-  83 2.33  87 2.43  70 2.44  82 2.48  67 2.49  85 2.50  90 2.56  89 2.60
                            66 2.67
  87  0.192  0.289  0.617-  86 2.43  68 2.48  90 2.50  67 2.51  71 2.53  83 2.55  88 2.57  84 2.61
                            91 2.62
  88  0.446  0.286  0.616-  65 2.46  92 2.51  68 2.52  72 2.52  81 2.54  87 2.57  91 2.63  84 2.64
                            85 2.64
  89  0.821  0.534  0.616-  70 2.38  85 2.52  69 2.52  73 2.53  90 2.54  93 2.56  92 2.59  86 2.60
                            96 2.64
  90  0.071  0.537  0.618-  70 2.43  71 2.45  94 2.49  87 2.50  91 2.53  89 2.54  86 2.56  93 2.57
                            74 2.64
  91  0.320  0.548  0.617-  71 2.45  94 2.45  95 2.49  92 2.49  75 2.52  90 2.53  72 2.61  87 2.62
                            88 2.63
  92  0.566  0.536  0.618-  91 2.49  69 2.51  88 2.51  95 2.56  96 2.57  89 2.59  76 2.61  72 2.65
                            85 2.67
  93  0.943  0.789  0.616-  77 2.47  82 2.50  74 2.50  83 2.51  94 2.53  89 2.56  90 2.57  96 2.58
                            73 2.60
  94  0.192  0.784  0.620-  91 2.45  84 2.47  90 2.49  93 2.53  95 2.58  83 2.65  74 2.68  78 2.68
                            75 2.71
  95  0.446  0.792  0.620-  81 2.41  84 2.46  96 2.46  91 2.49  76 2.55  92 2.56  94 2.58  75 2.64
                            79 2.66
  96  0.688  0.793  0.617-  81 2.44  80 2.45  95 2.46  76 2.52  73 2.57  92 2.57  93 2.58  82 2.61
                            89 2.64
  97  0.111  0.428  0.328- 148 0.93 147 0.95
  98  0.804  0.474  0.313- 150 0.98 149 1.01
  99  0.125  0.899  0.251- 152 0.92 230 0.99
 100  0.146  0.326  0.732- 154 0.96 153 0.98
 101  0.195  0.359  0.194- 155 0.95 156 1.03
 102  0.343  0.254  0.782- 158 0.93 171 0.96
 103  0.088  0.599  0.810- 160 0.99 175 1.03
 104  0.422  0.474  0.308- 162 0.96 157 1.02
 105  0.029  0.741  0.688- 188 0.94 163 0.98
 106  0.799  0.910  0.687- 164 0.98 165 0.99
 107  0.629  0.401  0.799- 167 0.96 161 0.98
 108  0.590  0.108  0.245- 169 1.03 170 1.03
 109  0.404  0.220  0.275- 159 0.95 172 0.96
 110  0.447  0.483  0.686- 173 0.96 174 0.99
 111  0.404  0.816  0.230- 151 0.98 176 1.03
 112  0.008  0.546  0.265- 184 0.95 177 0.96
 113  0.849  0.714  0.193- 178 0.97 179 0.98
 114  0.823  0.910  0.244- 180 1.01 181 1.03
 115  0.188  0.887  0.773- 183 0.94 182 0.97
 116  0.703  0.854  0.817- 185 0.96 166 0.97
 117  0.261  0.202  0.672- 186 0.95 187 1.01
 118  0.558  0.191  0.684- 190 0.95 189 1.02
 119  0.275  0.861  0.175- 168 0.97 191 1.00
 120  0.473  0.700  0.828- 196 0.95 192 0.98
 121  0.250  0.574  0.756- 193 0.94 195 0.98
 122  0.554  0.274  0.184- 197 0.99 194 1.01
 123  0.735  0.141  0.757- 199 0.98 198 0.98
 124  0.895  0.526  0.722- 200 0.97 203 1.00
 125  0.474  0.973  0.773- 201 0.96 222 1.00
 126  0.442  0.745  0.288- 202 1.00 204 1.01
 127  0.969  0.878  0.311- 205 0.98 206 0.98
 128  0.142  0.124  0.828- 207 0.94 209 0.99
 129  0.122  0.680  0.209- 208 0.96 210 0.98
 130  0.723  0.183  0.315- 213 0.97 212 0.98
 131  0.830  0.243  0.689- 214 0.96 218 0.99
 132  0.699  0.768  0.311- 215 0.94 217 0.97
 133  0.703  0.397  0.254- 216 0.97 219 1.00
 134  0.965  0.165  0.288- 220 0.97 221 1.03
 135  0.885  0.746  0.780- 226 0.97 236 1.01
 136  0.892  0.429  0.784- 225 0.97 223 0.98
 137  0.161  0.195  0.249- 224 1.00 227 1.02
 138  0.500  0.608  0.770- 228 0.98 229 0.98
 139  0.408  0.522  0.211- 231 0.95 233 0.98
 140  0.263  0.996  0.303- 232 0.99 234 1.02
 141  0.888  0.104  0.180- 211 0.95 235 0.97
 142  0.514  0.910  0.708- 238 0.93 237 0.99
 143  0.006  0.143  0.774- 240 0.95 239 0.97
 144  0.284  0.740  0.701- 242 0.99 241 1.00
 145  0.624  0.613  0.715- 243 0.91 244 1.00
 146  0.776  0.395  0.198- 245 0.93 246 0.98
 147  0.155  0.346  0.338-  97 0.95
 148  0.178  0.477  0.318-  97 0.93
 149  0.762  0.374  0.318-  98 1.01
 150  0.888  0.495  0.323-  98 0.98
 151  0.428  0.708  0.230- 111 0.98
 152  0.201  0.850  0.245-  99 0.92
 153  0.189  0.421  0.738- 100 0.98
 154  0.181  0.299  0.713- 100 0.96
 155  0.183  0.303  0.212- 101 0.95
 156  0.184  0.282  0.176- 101 1.03
 157  0.434  0.587  0.304- 104 1.02
 158  0.364  0.151  0.780- 102 0.93
 159  0.328  0.222  0.263- 109 0.95
 160  0.026  0.520  0.803- 103 0.99
 161  0.565  0.470  0.789- 107 0.98
 162  0.425  0.473  0.329- 104 0.96
 163  0.008  0.713  0.668- 105 0.98
 164  0.812  0.020  0.688- 106 0.98
 165  0.722  0.901  0.674- 106 0.99
 166  0.616  0.821  0.824- 116 0.97
 167  0.579  0.358  0.815- 107 0.96
 168  0.319  0.917  0.191- 119 0.97
 169  0.564  0.157  0.225- 108 1.03
 170  0.517  0.138  0.260- 108 1.03
 171  0.424  0.302  0.776- 102 0.96
 172  0.418  0.319  0.284- 109 0.96
 173  0.453  0.505  0.665- 110 0.96
 174  0.454  0.371  0.688- 110 0.99
 175  0.029  0.693  0.808- 103 1.03
 176  0.469  0.862  0.245- 111 1.03
 177  0.917  0.518  0.262- 112 0.96
 178  0.825  0.607  0.191- 113 0.97
 179  0.832  0.758  0.213- 113 0.98
 180  0.744  0.978  0.247- 114 1.01
 181  0.882  0.990  0.234- 114 1.03
 182  0.276  0.893  0.781- 115 0.97
 183  0.153  0.979  0.765- 115 0.94
 184  0.033  0.611  0.249- 112 0.95
 185  0.753  0.801  0.832- 116 0.96
 186  0.332  0.167  0.660- 117 0.95
 187  0.185  0.149  0.662- 117 1.01
 188  0.973  0.825  0.692- 105 0.94
 189  0.653  0.228  0.686- 118 1.02
 190  0.562  0.083  0.684- 118 0.95
 191  0.219  0.794  0.188- 119 1.00
 192  0.399  0.771  0.833- 120 0.98
 193  0.242  0.653  0.742- 121 0.94
 194  0.504  0.360  0.194- 122 1.01
 195  0.188  0.599  0.772- 121 0.98
 196  0.474  0.682  0.807- 120 0.95
 197  0.641  0.321  0.188- 122 0.99
 198  0.700  0.229  0.768- 123 0.98
 199  0.703  0.164  0.737- 123 0.98
 200  0.978  0.476  0.727- 124 0.97
 201  0.489  0.965  0.752- 125 0.96
 202  0.390  0.834  0.295- 126 1.00
 203  0.923  0.601  0.707- 124 1.00
 204  0.534  0.764  0.296- 126 1.01
 205  0.876  0.851  0.311- 127 0.98
 206  0.015  0.812  0.326- 127 0.98
 207  0.176  0.025  0.830- 128 0.94
 208  0.123  0.580  0.200- 129 0.96
 209  0.094  0.135  0.809- 128 0.99
 210  0.031  0.709  0.204- 129 0.98
 211  0.828  0.045  0.168- 141 0.95
 212  0.805  0.147  0.306- 130 0.98
 213  0.682  0.107  0.327- 130 0.97
 214  0.870  0.338  0.694- 131 0.96
 215  0.721  0.665  0.314- 132 0.94
 216  0.686  0.289  0.257- 133 0.97
 217  0.675  0.810  0.330- 132 0.97
 218  0.855  0.213  0.668- 131 0.99
 219  0.721  0.430  0.274- 133 1.00
 220  0.991  0.244  0.302- 134 0.97
 221  0.986  0.063  0.298- 134 1.03
 222  0.551  0.924  0.783- 125 1.00
 223  0.807  0.459  0.792- 136 0.98
 224  0.101  0.242  0.264- 137 1.00
 225  0.903  0.329  0.793- 136 0.97
 226  0.876  0.693  0.761- 135 0.97
 227  0.141  0.082  0.251- 137 1.02
 228  0.408  0.590  0.765- 138 0.98
 229  0.555  0.610  0.752- 138 0.98
 230  0.112  0.875  0.272-  99 0.99
 231  0.329  0.463  0.211- 139 0.95
 232  0.308  0.082  0.293- 140 0.99
 233  0.395  0.576  0.192- 139 0.98
 234  0.277  0.020  0.325- 140 1.02
 235  0.967  0.110  0.167- 141 0.97
 236  0.800  0.804  0.783- 135 1.01
 237  0.436  0.858  0.699- 142 0.99
 238  0.585  0.843  0.706- 142 0.93
 239  0.039  0.223  0.761- 143 0.97
 240  0.920  0.120  0.767- 143 0.95
 241  0.192  0.758  0.693- 144 1.00
 242  0.314  0.639  0.693- 144 0.99
 243  0.704  0.567  0.714- 145 0.91
 244  0.564  0.552  0.702- 145 1.00
 245  0.761  0.403  0.219- 146 0.93
 246  0.832  0.306  0.195- 146 0.98
 
  LATTYP: Found a simple orthorhombic cell.
 ALAT       =     8.7818242400
 B/A-ratio  =     1.1547005384
 C/A-ratio  =     5.1004824027
  
  Lattice vectors:
  
 A1 = (   0.0000000000,  -8.7818242400,   0.0000000000)
 A2 = (  10.1403771780,   0.0000000000,   0.0000000000)
 A3 = (   0.0000000000,   0.0000000000,  44.7915400000)


Analysis of symmetry for initial positions (statically):
=====================================================================
 Subroutine PRICEL returns:
 Original cell was already a primitive cell.
 

 Routine SETGRP: Setting up the symmetry group for a 
 simple orthorhombic supercell.


 Subroutine GETGRP returns: Found  1 space group operations
 (whereof  1 operations were pure point group operations)
 out of a pool of  8 trial point group operations.


The static configuration has the point symmetry C_1 .


Analysis of symmetry for dynamics (positions and initial velocities):
=====================================================================
 Subroutine PRICEL returns:
 Original cell was already a primitive cell.
 

 Routine SETGRP: Setting up the symmetry group for a 
 simple orthorhombic supercell.


 Subroutine GETGRP returns: Found  1 space group operations
 (whereof  1 operations were pure point group operations)
 out of a pool of  8 trial point group operations.


The dynamic configuration has the point symmetry C_1 .


 Subroutine INISYM returns: Found  1 space group operations
 (whereof  1 operations are pure point group operations),
 and found     1 'primitive' translations


----------------------------------------------------------------------------------------

                                     Primitive cell                                     

  volume of cell :    3988.7319

  direct lattice vectors                    reciprocal lattice vectors
    10.140377178  0.000000000  0.000000000     0.098615661  0.000000000  0.000000000
     0.000000000  8.781824240  0.000000000     0.000000000  0.113871557  0.000000000
     0.000000000  0.000000000 44.791540000     0.000000000  0.000000000  0.022325645

  length of vectors
    10.140377178  8.781824240 44.791540000     0.098615661  0.113871557  0.022325645

  position of ions in fractional coordinates (direct lattice)
     0.690583780  0.134744213  0.383355875
     0.941324946  0.139987999  0.384636027
     0.169924646  0.121571552  0.387142081
     0.435667226  0.127990491  0.383111632
     0.808774650  0.378076344  0.387338323
     0.054825377  0.385607809  0.385997445
     0.311529832  0.381806776  0.381472930
     0.565295541  0.398815770  0.385709667
     0.946852354  0.627802362  0.386882210
     0.174545776  0.639032375  0.386463158
     0.435388144  0.635557015  0.387844446
     0.681252766  0.629192734  0.379525017
     0.061730445  0.877087697  0.385989408
     0.309182779  0.887607152  0.387746883
     0.554379773  0.881016266  0.384455413
     0.810940250  0.880760055  0.383615076
     0.548045689  0.211581324  0.427670940
     0.819496144  0.201759902  0.431006391
     0.055146864  0.220638668  0.430345552
     0.305457080  0.209687640  0.432169557
     0.682406569  0.458531154  0.431234113
     0.941037974  0.462644194  0.430865739
     0.188826310  0.467122763  0.432316906
     0.431907011  0.449737992  0.432345930
     0.806940398  0.707367835  0.431899417
     0.055379597  0.706182432  0.432187418
     0.308234097  0.703427879  0.430258482
     0.560885448  0.711339675  0.429579782
     0.934996779  0.968149643  0.429999504
     0.176116723  0.965393951  0.431919510
     0.435389130  0.954419010  0.433511328
     0.684930144  0.948077503  0.432754489
     0.562499787  0.041666741  0.478544386
     0.812500349  0.041666741  0.478544386
     0.062499648  0.041666741  0.478544386
     0.312500210  0.041666741  0.478544386
     0.687500068  0.291667190  0.478544386
     0.937499645  0.291667190  0.478544386
     0.187499929  0.291667190  0.478544386
     0.437500492  0.291667190  0.478544386
     0.812500349  0.541666500  0.478544386
     0.062499648  0.541666500  0.478544386
     0.312500210  0.541666500  0.478544386
     0.562499787  0.541666500  0.478544386
     0.937499645  0.791666949  0.478544386
     0.187499929  0.791666949  0.478544386
     0.437500492  0.791666949  0.478544386
     0.687500068  0.791666949  0.478544386
     0.687500068  0.125000224  0.524756237
     0.937499645  0.125000224  0.524756237
     0.187499929  0.125000224  0.524756237
     0.437500492  0.125000224  0.524756237
     0.812500349  0.374999534  0.524756237
     0.062499648  0.374999534  0.524756237
     0.312500210  0.374999534  0.524756237
     0.562499787  0.374999534  0.524756237
     0.937499645  0.624999983  0.524756237
     0.187499929  0.624999983  0.524756237
     0.437500492  0.624999983  0.524756237
     0.687500068  0.624999983  0.524756237
     0.062499648  0.875000432  0.524756237
     0.312500210  0.875000432  0.524756237
     0.562499787  0.875000432  0.524756237
     0.812500349  0.875000432  0.524756237
     0.573927370  0.208696957  0.571678045
     0.814746814  0.198095516  0.569744644
     0.070515129  0.206416110  0.571186880
     0.309100928  0.197148104  0.572160278
     0.683350321  0.460347405  0.570985950
     0.948674771  0.446805799  0.574350424
     0.195950305  0.466876800  0.572832280
     0.439567476  0.448245136  0.569318224
     0.808038977  0.703294649  0.570017017
     0.061847798  0.712388432  0.569838411
     0.326683115  0.705566387  0.570012551
     0.561463336  0.713735532  0.571463718
     0.930084733  0.956171494  0.571925859
     0.195267885  0.963400060  0.571300741
     0.441267610  0.963542399  0.570711344
     0.696072727  0.954087644  0.572785397
     0.562410046  0.030027930  0.616016775
     0.829461257  0.038685584  0.623857541
     0.057230613  0.043254111  0.616889707
     0.314635239  0.026865716  0.618070734
     0.706388912  0.279536453  0.617284871
     0.952854103  0.280073927  0.617834082
     0.192248273  0.288758911  0.617358546
     0.445814778  0.285984999  0.615704216
     0.821102594  0.533923234  0.615657332
     0.071405628  0.536823543  0.617555012
     0.320247457  0.548256247  0.616945521
     0.565895124  0.536037829  0.618043943
     0.943069457  0.789439621  0.616280217
     0.191543171  0.784426995  0.619890274
     0.445718135  0.791743243  0.619658087
     0.688245602  0.792740757  0.617389802
     0.110890353  0.427780140  0.328260872
     0.804344834  0.474429900  0.312779601
     0.125113689  0.899191305  0.250756281
     0.145916663  0.325706815  0.731685939
     0.194859616  0.359072320  0.193617589
     0.342975408  0.253787817  0.781735569
     0.088377383  0.599188717  0.810267743
     0.421787072  0.473802468  0.307935382
     0.028753368  0.741103422  0.688325072
     0.798604417  0.909765418  0.687329348
     0.628614684  0.400801690  0.798629384
     0.589893245  0.108418248  0.245017251
     0.404384366  0.220218482  0.275420984
     0.446595814  0.482567162  0.685630367
     0.404068796  0.815830493  0.229805673
     0.008132834  0.545568878  0.265328453
     0.848925030  0.714119280  0.192829717
     0.823422034  0.910233430  0.244443035
     0.188153751  0.886748560  0.772508380
     0.703156290  0.854117527  0.817286925
     0.261254582  0.202161869  0.672020654
     0.557824418  0.190634651  0.684252875
     0.274858612  0.861354064  0.175265910
     0.472662892  0.700414838  0.828266677
     0.249750079  0.573629107  0.756320055
     0.554053355  0.274308610  0.184339052
     0.734684703  0.141111911  0.757353732
     0.895270446  0.525661853  0.722302471
     0.474102680  0.972753470  0.773388010
     0.442440150  0.745047933  0.288015996
     0.968999459  0.877860885  0.311387820
     0.142305358  0.123654263  0.827717466
     0.122074355  0.680069407  0.208685390
     0.723103280  0.183051944  0.314662769
     0.830445441  0.242752524  0.688642096
     0.699172218  0.767739118  0.310868526
     0.703403816  0.396963080  0.253513722
     0.964673190  0.164679907  0.288041894
     0.885102185  0.746124019  0.779900401
     0.892363256  0.428975791  0.784271762
     0.161235620  0.194532474  0.248843197
     0.500453771  0.607801962  0.770456653
     0.407683060  0.521700261  0.211282756
     0.263433002  0.996134717  0.302986903
     0.887804254  0.103588955  0.179711392
     0.514043009  0.909978358  0.707659080
     0.006147700  0.143371123  0.774423920
     0.283945059  0.739503527  0.700537200
     0.624343640  0.613471626  0.714928310
     0.776452381  0.395363185  0.198378087
     0.154654997  0.346235579  0.338255617
     0.178497305  0.476820064  0.317835690
     0.761568319  0.374250259  0.317751075
     0.887850604  0.494500901  0.322906290
     0.428431795  0.708216178  0.230065990
     0.201051693  0.849539890  0.244965679
     0.189094544  0.420868136  0.737600002
     0.181170776  0.299052899  0.712523838
     0.183424144  0.303331054  0.211591966
     0.184379729  0.282431068  0.176403401
     0.433625882  0.587057980  0.304245177
     0.363998295  0.151076811  0.779811098
     0.327593337  0.222254505  0.263298159
     0.025583861  0.520426038  0.803208374
     0.564743293  0.470245121  0.789449079
     0.425431907  0.473130626  0.329291201
     0.007570724  0.713043193  0.667678316
     0.811867237  0.019834148  0.687601721
     0.721832124  0.901285403  0.673645961
     0.616395218  0.820966100  0.823551501
     0.579101733  0.358031534  0.814768592
     0.318522669  0.916768519  0.191130959
     0.563738399  0.156991300  0.225030888
     0.516574473  0.137523818  0.259833442
     0.423769247  0.301709523  0.775714342
     0.417917394  0.318908683  0.284319316
     0.453257302  0.504534124  0.664637563
     0.453918027  0.370830697  0.688126374
     0.028744493  0.692772918  0.807633316
     0.469465772  0.862421041  0.244993586
     0.917377119  0.517672624  0.261978713
     0.824874643  0.607290678  0.190707888
     0.831510490  0.757655792  0.212700657
     0.743847085  0.978254605  0.246766689
     0.881869564  0.990022091  0.233774726
     0.276427588  0.893233545  0.780976497
     0.153118565  0.978546116  0.765111894
     0.033187128  0.611222663  0.249306231
     0.753272769  0.801146756  0.832280828
     0.332484674  0.166860547  0.660181365
     0.185392512  0.149230953  0.661668253
     0.973494361  0.825017650  0.692013269
     0.652949085  0.228179242  0.685572320
     0.562045169  0.082535243  0.684051944
     0.218943532  0.793650591  0.187975453
     0.399454569  0.770501642  0.832557666
     0.241903231  0.653449653  0.742319643
     0.503814593  0.359937743  0.194376215
     0.187505846  0.599145446  0.772403449
     0.474017871  0.682267128  0.807318525
     0.640987005  0.321124623  0.187856903
     0.700297422  0.228591457  0.768442880
     0.702712520  0.163807651  0.737282978
     0.977597759  0.476022964  0.727321275
     0.488918697  0.964714138  0.752171950
     0.389745858  0.833953151  0.295222044
     0.923143177  0.600926397  0.706792845
     0.534423908  0.764195436  0.295742008
     0.875696224  0.850561318  0.311020340
     0.014543838  0.811979357  0.325857740
     0.176459906  0.024826277  0.829552634
     0.122955979  0.580421546  0.199778798
     0.093542872  0.135483240  0.808838901
     0.031398240  0.709391333  0.203904353
     0.828082610  0.045010010  0.167954708
     0.805477928  0.147229091  0.305780734
     0.682496309  0.106720423  0.327431698
     0.870391687  0.337814777  0.694484717
     0.720995864  0.664727492  0.314246842
     0.686086906  0.289455804  0.257170885
     0.674718492  0.809962692  0.330168152
     0.855436622  0.212616416  0.668171713
     0.721183233  0.430081484  0.274469018
     0.991176149  0.243956146  0.302044315
     0.985836111  0.063320557  0.298339374
     0.551384816  0.923693048  0.783385434
     0.806733306  0.458820387  0.792286668
     0.100925240  0.241950868  0.264004988
     0.902763264  0.328521720  0.792826949
     0.876200150  0.692598694  0.761041929
     0.141260032  0.081603774  0.250980431
     0.408097246  0.589929821  0.765243615
     0.554654911  0.609941608  0.752384044
     0.112483982  0.874645152  0.272097588
     0.328649511  0.463064380  0.210513637
     0.308313975  0.081789385  0.292949963
     0.395121397  0.576186663  0.192463354
     0.277067603  0.019838703  0.325097552
     0.966770745  0.110114934  0.167442334
     0.800024482  0.803749860  0.783164410
     0.436096205  0.857826323  0.699090498
     0.584888500  0.843347555  0.706018145
     0.038668187  0.223427382  0.761454953
     0.920067354  0.120080973  0.767092179
     0.191895229  0.757963245  0.693270202
     0.314371935  0.638752251  0.693346110
     0.704069471  0.567234081  0.713825423
     0.564111167  0.552468356  0.701738319
     0.761462800  0.402953863  0.218729698
     0.831504573  0.305707553  0.194714002

  ion indices of the primitive-cell ions
   primitive index   ion index
                 1           1
                 2           2
                 3           3
                 4           4
                 5           5
                 6           6
                 7           7
                 8           8
                 9           9
                10          10
                11          11
                12          12
                13          13
                14          14
                15          15
                16          16
                17          17
                18          18
                19          19
                20          20
                21          21
                22          22
                23          23
                24          24
                25          25
                26          26
                27          27
                28          28
                29          29
                30          30
                31          31
                32          32
                33          33
                34          34
                35          35
                36          36
                37          37
                38          38
                39          39
                40          40
                41          41
                42          42
                43          43
                44          44
                45          45
                46          46
                47          47
                48          48
                49          49
                50          50
                51          51
                52          52
                53          53
                54          54
                55          55
                56          56
                57          57
                58          58
                59          59
                60          60
                61          61
                62          62
                63          63
                64          64
                65          65
                66          66
                67          67
                68          68
                69          69
                70          70
                71          71
                72          72
                73          73
                74          74
                75          75
                76          76
                77          77
                78          78
                79          79
                80          80
                81          81
                82          82
                83          83
                84          84
                85          85
                86          86
                87          87
                88          88
                89          89
                90          90
                91          91
                92          92
                93          93
                94          94
                95          95
                96          96
                97          97
                98          98
                99          99
               100         100
               101         101
               102         102
               103         103
               104         104
               105         105
               106         106
               107         107
               108         108
               109         109
               110         110
               111         111
               112         112
               113         113
               114         114
               115         115
               116         116
               117         117
               118         118
               119         119
               120         120
               121         121
               122         122
               123         123
               124         124
               125         125
               126         126
               127         127
               128         128
               129         129
               130         130
               131         131
               132         132
               133         133
               134         134
               135         135
               136         136
               137         137
               138         138
               139         139
               140         140
               141         141
               142         142
               143         143
               144         144
               145         145
               146         146
               147         147
               148         148
               149         149
               150         150
               151         151
               152         152
               153         153
               154         154
               155         155
               156         156
               157         157
               158         158
               159         159
               160         160
               161         161
               162         162
               163         163
               164         164
               165         165
               166         166
               167         167
               168         168
               169         169
               170         170
               171         171
               172         172
               173         173
               174         174
               175         175
               176         176
               177         177
               178         178
               179         179
               180         180
               181         181
               182         182
               183         183
               184         184
               185         185
               186         186
               187         187
               188         188
               189         189
               190         190
               191         191
               192         192
               193         193
               194         194
               195         195
               196         196
               197         197
               198         198
               199         199
               200         200
               201         201
               202         202
               203         203
               204         204
               205         205
               206         206
               207         207
               208         208
               209         209
               210         210
               211         211
               212         212
               213         213
               214         214
               215         215
               216         216
               217         217
               218         218
               219         219
               220         220
               221         221
               222         222
               223         223
               224         224
               225         225
               226         226
               227         227
               228         228
               229         229
               230         230
               231         231
               232         232
               233         233
               234         234
               235         235
               236         236
               237         237
               238         238
               239         239
               240         240
               241         241
               242         242
               243         243
               244         244
               245         245
               246         246

----------------------------------------------------------------------------------------

 
 
 KPOINTS: KPOINTS created by Atomic Simulation Env

Automatic generation of k-mesh.
 Grid dimensions read from file:
 generate k-points for:    2    2    1

 Generating k-lattice:

  Cartesian coordinates                     Fractional coordinates (reciprocal lattice)
     0.049307831  0.000000000  0.000000000     0.500000000  0.000000000  0.000000000
     0.000000000  0.056935779  0.000000000     0.000000000  0.500000000  0.000000000
     0.000000000  0.000000000  0.022325645     0.000000000  0.000000000  1.000000000

  Length of vectors
     0.049307831  0.056935779  0.022325645

  Shift w.r.t. Gamma in fractional coordinates (k-lattice)
     0.500000000  0.500000000  0.000000000

 
 Subroutine IBZKPT returns following result:
 ===========================================
 
 Found      2 irreducible k-points:
 
 Following reciprocal coordinates:
            Coordinates               Weight
  0.250000  0.250000  0.000000      2.000000
 -0.250000  0.250000  0.000000      2.000000
 
 Following cartesian coordinates:
            Coordinates               Weight
  0.024654  0.028468  0.000000      2.000000
 -0.024654  0.028468  0.000000      2.000000
 


--------------------------------------------------------------------------------------------------------




 Dimension of arrays:
   k-points           NKPTS =      2   k-points in BZ     NKDIM =      2   number of bands    NBANDS=    874
   number of dos      NEDOS =    301   number of ions     NIONS =    246
   non local maximal  LDIM  =      6   non local SUM 2l+1 LMDIM =     18
   total plane-waves  NPLWV = ******
   max r-space proj   IRMAX =   8825   max aug-charges    IRDMAX=  24792
   dimension x,y,z NGX =    96 NGY =   84 NGZ =  420
   dimension x,y,z NGXF=   192 NGYF=  168 NGZF=  840
   support grid    NGXF=   192 NGYF=  168 NGZF=  840
   ions per type =              96  50 100
   NGX,Y,Z   is equivalent  to a cutoff of  15.74, 15.90, 15.59 a.u.
   NGXF,Y,Z  is equivalent  to a cutoff of  31.48, 31.80, 31.18 a.u.

 SYSTEM =  unknown system                          
 POSCAR =  Cu O  H                                 

 Startparameter for this run:
   NWRITE =      2    write-flag & timer
   PREC   = accura    normal or accurate (medium, high low for compatibility)
   ISTART =      1    job   : 0-new  1-cont  2-samecut
   ICHARG =      1    charge: 1-file 2-atom 10-const
   ISPIN  =      1    spin polarized calculation?
   LNONCOLLINEAR =      F non collinear calculations
   LSORBIT =      F    spin-orbit coupling
   INIWAV =      1    electr: 0-lowe 1-rand  2-diag
   LASPH  =      T    aspherical Exc in radial PAW
 Electronic Relaxation 1
   ENCUT  =  800.0 eV  58.80 Ry    7.67 a.u.  23.39 20.25103.30*2*pi/ulx,y,z
   ENINI  =  800.0     initial cutoff
   ENAUG  = 1000.0 eV  augmentation charge cutoff
   NELM   =    300;   NELMIN=  2; NELMDL=  0     # of ELM steps 
   EDIFF  = 0.1E-06   stopping-criterion for ELM
   LREAL  =      T    real-space projection
   NLSPLINE    = F    spline interpolate recip. space projectors
   LCOMPAT=      F    compatible to vasp.4.4
   GGA_COMPAT  = T    GGA compatible to vasp.4.4-vasp.4.6
   LMAXPAW     = -100 max onsite density
   LMAXMIX     =    2 max onsite mixed and CHGCAR
   VOSKOWN=      0    Vosko Wilk Nusair interpolation
   ROPT   =   -0.00025  -0.00025  -0.00025
 Ionic relaxation
   EDIFFG = 0.1E-05   stopping-criterion for IOM
   NSW    =      0    number of steps for IOM
   NBLOCK =      1;   KBLOCK =      1    inner block; outer block 
   IBRION =     -1    ionic relax: 0-MD 1-quasi-New 2-CG
   NFREE  =      0    steps in history (QN), initial steepest desc. (CG)
   ISIF   =      2    stress and relaxation
   IWAVPR =     10    prediction:  0-non 1-charg 2-wave 3-comb
   ISYM   =      2    0-nonsym 1-usesym 2-fastsym
   LCORR  =      T    Harris-Foulkes like correction to forces

   POTIM  = 0.5000    time-step for ionic-motion
   TEIN   =    0.0    initial temperature
   TEBEG  =    0.0;   TEEND  =   0.0 temperature during run
   SMASS  =  -3.00    Nose mass-parameter (am)
   estimated Nose-frequenzy (Omega)   =  0.10E-29 period in steps = 0.13E+47 mass=  -0.235E-26a.u.
   SCALEE = 1.0000    scale energy and forces
   NPACO  =    256;   APACO  = 10.0  distance and # of slots for P.C.
   PSTRESS=    0.0 pullay stress

  Mass of Ions in am
   POMASS =  63.55 16.00  1.00
  Ionic Valenz
   ZVAL   =  11.00  6.00  1.00
  Atomic Wigner-Seitz radii
   RWIGS  =  -1.00 -1.00 -1.00
  virtual crystal weights 
   VCA    =   1.00  1.00  1.00
   NELECT =    1456.0000    total number of electrons
   NUPDOWN=      -1.0000    fix difference up-down

 DOS related values:
   EMIN   =  10.00;   EMAX   =-10.00  energy-range for DOS
   EFERMI =   0.00;   METHOD = LEGACY      
   ISMEAR =     0;   SIGMA  =   0.10  broadening in eV -4-tet -1-fermi 0-gaus

 Electronic relaxation 2 (details)
   IALGO  =     58    algorithm
   LDIAG  =      T    sub-space diagonalisation (order eigenvalues)
   LSUBROT=      F    optimize rotation matrix (better conditioning)
   TURBO    =      0    0=normal 1=particle mesh
   IRESTART =      0    0=no restart 2=restart with 2 vectors
   NREBOOT  =      0    no. of reboots
   NMIN     =      0    reboot dimension
   EREF     =   0.00    reference energy to select bands
   IMIX   =      4    mixing-type and parameters
     AMIX     =   0.40;   BMIX     =  1.00
     AMIX_MAG =   1.60;   BMIX_MAG =  1.00
     AMIN     =   0.10
     WC   =   100.;   INIMIX=   1;  MIXPRE=   1;  MAXMIX= -45

 Intra band minimization:
   WEIMIN = 0.0000     energy-eigenvalue tresh-hold
   EBREAK =  0.29E-10  absolut break condition
   DEPER  =   0.30     relativ break condition  

   TIME   =   0.40     timestep for ELM

  volume/ion in A,a.u.               =      16.21       109.42
  Fermi-wavevector in a.u.,A,eV,Ry     =   1.169994  2.210968 18.624828  1.368886
  Thomas-Fermi vector in A             =   2.306459
 
 Write flags
   LWAVE        =      T    write WAVECAR
   LDOWNSAMPLE  =      F    k-point downsampling of WAVECAR
   LCHARG       =      T    write CHGCAR
   LVTOT        =      F    write LOCPOT, total local potential
   LVHAR        =      T    write LOCPOT, Hartree potential only
   WRT_POTENTIAL=  hartree ionic  ! write potential to hdf5 file
   LELF         =      F    write electronic localiz. function (ELF)
   LORBIT       =      0    0 simple, 1 ext, 2 COOP (PROOUT), +10 PAW based schemes


 Dipole corrections
   LMONO      =      F    monopole corrections only (constant potential shift)
   LDIPOL     =      T    correct potential (dipole corrections)
   IDIPOL     =      3    1-x, 2-y, 3-z, 4-all directions 
   EPSILON    =  1.0000000 bulk dielectric constant
   LVACPOTAV  =      T  vacuum potentials using an averaging scheme for the charge density
   VACPOTFLAT =  0.1000000 required flatness to determine vacuum potential
 Exchange correlation treatment:
   METAGGA = R2SCAN    functional components
   XC_C    = 1    coefficients multiplying the functional components
   LIBXC   =     F    Libxc                    
   VOSKOWN =     0    Vosko Wilk Nusair interpolation
   LHFCALC =     F    Hartree Fock is set to
   LHFONE  =     F    Hartree Fock one center treatment
   AEXX    =    0.0000 exact exchange contribution

 Parameters of functionals:
   R2SCAN:
     No parameter
 
 Accuracy and mixing parameters for tau-dependent meta-GGA functionals:
   LMAXTAU = 6
   LMIXTAU = T
 
 Van der Waals corrections
   IVDW    =     0    specifies the selected vdW correction

 Linear response parameters
   LEPSILON=     F    determine dielectric tensor
   LRPA    =     F    only Hartree local field effects (RPA)
   LNABLA  =     F    use nabla operator in PAW spheres
   LVEL    =     F    velocity operator in full k-point grid
   CSHIFT  =0.1000    complex shift for real part using Kramers Kronig
   OMEGAMAX=  -1.0    maximum frequency
   DEG_THRESHOLD= 0.2000000E-02 threshold for treating states as degnerate
   RTIME   =   -0.100 relaxation time in fs
  (WPLASMAI=    0.000 imaginary part of plasma frequency in eV, 0.658/RTIME)
   DFIELD  = 0.0000000 0.0000000 0.0000000 field for delta impulse in time
 
  Optional k-point grid parameters
   LKPOINTS_OPT  =     F    use optional k-point grid
   KPOINTS_OPT_MODE=     1    mode for optional k-point grid
 
 Orbital magnetization related:
   ORBITALMAG=     F  switch on orbital magnetization
   LCHIMAG   =     F  perturbation theory with respect to B field
   DQ        =  0.001000  dq finite difference perturbation B field
   LLRAUG    =     F  two centre corrections for induced B field
   LBONE     =     F  B-component reconstruction in AE one-centre
   LVGVCALC  =     T  calculate vGv susceptibility
   LVGVAPPL  =     F  apply vGv susceptibility instead of pGv for G=0

 Random number generation:
   RANDOM_GENERATOR = DEFAULT
   PCG_SEED         = not used


--------------------------------------------------------------------------------------------------------


 Static calculation
 charge density and potential will be updated during run
 non-spin polarized calculation
 Conjugate gradient for all bands (Freysoldt, et al. PRB 79, 241103 (2009))
 preconditioned conjugated gradient                                        
 perform sub-space diagonalisation
    before iterative eigenvector-optimisation
 modified Broyden-mixing scheme, WC =      100.0
 initial mixing is a Kerker type mixing with AMIX =  0.4000 and BMIX =      1.0000
 Hartree-type preconditioning will be used
 using additional bands           146
 real space projection scheme for non local part
 use partial core corrections
 no Harris-corrections to forces 
 use gradient corrections 
 use of overlap-Matrix (Vanderbilt PP)
 Gauss-broadening in eV      SIGMA  =   0.10


--------------------------------------------------------------------------------------------------------


  energy-cutoff  :      800.00
  volume of cell :     3988.73
      direct lattice vectors                 reciprocal lattice vectors
    10.140377178  0.000000000  0.000000000     0.098615661  0.000000000  0.000000000
     0.000000000  8.781824240  0.000000000     0.000000000  0.113871557  0.000000000
     0.000000000  0.000000000 44.791540000     0.000000000  0.000000000  0.022325645

  length of vectors
    10.140377178  8.781824240 44.791540000     0.098615661  0.113871557  0.022325645


 
 old parameters found on file WAVECAR:
  energy-cutoff  :      800.00
  volume of cell :     3988.73
      direct lattice vectors                 reciprocal lattice vectors
    10.140377178  0.000000000  0.000000000     0.098615661  0.000000000  0.000000000
     0.000000000  8.781824240  0.000000000     0.000000000  0.113871557  0.000000000
     0.000000000  0.000000000 44.791540000     0.000000000  0.000000000  0.022325645

  length of vectors

 
 k-points in units of 2pi/SCALE and weight: KPOINTS created by Atomic Simulation Env
   0.02465392  0.02846789  0.00000000       0.500
  -0.02465392  0.02846789  0.00000000       0.500
 
 k-points in reciprocal lattice and weights: KPOINTS created by Atomic Simulation Env
   0.25000000  0.25000000  0.00000000       0.500
  -0.25000000  0.25000000  0.00000000       0.500
 
 position of ions in fractional coordinates (direct lattice) 
   0.69058378  0.13474421  0.38335587
   0.94132495  0.13998800  0.38463603
   0.16992465  0.12157155  0.38714208
   0.43566723  0.12799049  0.38311163
   0.80877465  0.37807634  0.38733832
   0.05482538  0.38560781  0.38599745
   0.31152983  0.38180678  0.38147293
   0.56529554  0.39881577  0.38570967
   0.94685235  0.62780236  0.38688221
   0.17454578  0.63903237  0.38646316
   0.43538814  0.63555701  0.38784445
   0.68125277  0.62919273  0.37952502
   0.06173045  0.87708770  0.38598941
   0.30918278  0.88760715  0.38774688
   0.55437977  0.88101627  0.38445541
   0.81094025  0.88076005  0.38361508
   0.54804569  0.21158132  0.42767094
   0.81949614  0.20175990  0.43100639
   0.05514686  0.22063867  0.43034555
   0.30545708  0.20968764  0.43216956
   0.68240657  0.45853115  0.43123411
   0.94103797  0.46264419  0.43086574
   0.18882631  0.46712276  0.43231691
   0.43190701  0.44973799  0.43234593
   0.80694040  0.70736784  0.43189942
   0.05537960  0.70618243  0.43218742
   0.30823410  0.70342788  0.43025848
   0.56088545  0.71133967  0.42957978
   0.93499678  0.96814964  0.42999950
   0.17611672  0.96539395  0.43191951
   0.43538913  0.95441901  0.43351133
   0.68493014  0.94807750  0.43275449
   0.56249979  0.04166674  0.47854439
   0.81250035  0.04166674  0.47854439
   0.06249965  0.04166674  0.47854439
   0.31250021  0.04166674  0.47854439
   0.68750007  0.29166719  0.47854439
   0.93749964  0.29166719  0.47854439
   0.18749993  0.29166719  0.47854439
   0.43750049  0.29166719  0.47854439
   0.81250035  0.54166650  0.47854439
   0.06249965  0.54166650  0.47854439
   0.31250021  0.54166650  0.47854439
   0.56249979  0.54166650  0.47854439
   0.93749964  0.79166695  0.47854439
   0.18749993  0.79166695  0.47854439
   0.43750049  0.79166695  0.47854439
   0.68750007  0.79166695  0.47854439
   0.68750007  0.12500022  0.52475624
   0.93749964  0.12500022  0.52475624
   0.18749993  0.12500022  0.52475624
   0.43750049  0.12500022  0.52475624
   0.81250035  0.37499953  0.52475624
   0.06249965  0.37499953  0.52475624
   0.31250021  0.37499953  0.52475624
   0.56249979  0.37499953  0.52475624
   0.93749964  0.62499998  0.52475624
   0.18749993  0.62499998  0.52475624
   0.43750049  0.62499998  0.52475624
   0.68750007  0.62499998  0.52475624
   0.06249965  0.87500043  0.52475624
   0.31250021  0.87500043  0.52475624
   0.56249979  0.87500043  0.52475624
   0.81250035  0.87500043  0.52475624
   0.57392737  0.20869696  0.57167804
   0.81474681  0.19809552  0.56974464
   0.07051513  0.20641611  0.57118688
   0.30910093  0.19714810  0.57216028
   0.68335032  0.46034740  0.57098595
   0.94867477  0.44680580  0.57435042
   0.19595030  0.46687680  0.57283228
   0.43956748  0.44824514  0.56931822
   0.80803898  0.70329465  0.57001702
   0.06184780  0.71238843  0.56983841
   0.32668311  0.70556639  0.57001255
   0.56146334  0.71373553  0.57146372
   0.93008473  0.95617149  0.57192586
   0.19526788  0.96340006  0.57130074
   0.44126761  0.96354240  0.57071134
   0.69607273  0.95408764  0.57278540
   0.56241005  0.03002793  0.61601677
   0.82946126  0.03868558  0.62385754
   0.05723061  0.04325411  0.61688971
   0.31463524  0.02686572  0.61807073
   0.70638891  0.27953645  0.61728487
   0.95285410  0.28007393  0.61783408
   0.19224827  0.28875891  0.61735855
   0.44581478  0.28598500  0.61570422
   0.82110259  0.53392323  0.61565733
   0.07140563  0.53682354  0.61755501
   0.32024746  0.54825625  0.61694552
   0.56589512  0.53603783  0.61804394
   0.94306946  0.78943962  0.61628022
   0.19154317  0.78442700  0.61989027
   0.44571813  0.79174324  0.61965809
   0.68824560  0.79274076  0.61738980
   0.11089035  0.42778014  0.32826087
   0.80434483  0.47442990  0.31277960
   0.12511369  0.89919131  0.25075628
   0.14591666  0.32570681  0.73168594
   0.19485962  0.35907232  0.19361759
   0.34297541  0.25378782  0.78173557
   0.08837738  0.59918872  0.81026774
   0.42178707  0.47380247  0.30793538
   0.02875337  0.74110342  0.68832507
   0.79860442  0.90976542  0.68732935
   0.62861468  0.40080169  0.79862938
   0.58989325  0.10841825  0.24501725
   0.40438437  0.22021848  0.27542098
   0.44659581  0.48256716  0.68563037
   0.40406880  0.81583049  0.22980567
   0.00813283  0.54556888  0.26532845
   0.84892503  0.71411928  0.19282972
   0.82342203  0.91023343  0.24444304
   0.18815375  0.88674856  0.77250838
   0.70315629  0.85411753  0.81728693
   0.26125458  0.20216187  0.67202065
   0.55782442  0.19063465  0.68425287
   0.27485861  0.86135406  0.17526591
   0.47266289  0.70041484  0.82826668
   0.24975008  0.57362911  0.75632006
   0.55405336  0.27430861  0.18433905
   0.73468470  0.14111191  0.75735373
   0.89527045  0.52566185  0.72230247
   0.47410268  0.97275347  0.77338801
   0.44244015  0.74504793  0.28801600
   0.96899946  0.87786089  0.31138782
   0.14230536  0.12365426  0.82771747
   0.12207435  0.68006941  0.20868539
   0.72310328  0.18305194  0.31466277
   0.83044544  0.24275252  0.68864210
   0.69917222  0.76773912  0.31086853
   0.70340382  0.39696308  0.25351372
   0.96467319  0.16467991  0.28804189
   0.88510219  0.74612402  0.77990040
   0.89236326  0.42897579  0.78427176
   0.16123562  0.19453247  0.24884320
   0.50045377  0.60780196  0.77045665
   0.40768306  0.52170026  0.21128276
   0.26343300  0.99613472  0.30298690
   0.88780425  0.10358896  0.17971139
   0.51404301  0.90997836  0.70765908
   0.00614770  0.14337112  0.77442392
   0.28394506  0.73950353  0.70053720
   0.62434364  0.61347163  0.71492831
   0.77645238  0.39536318  0.19837809
   0.15465500  0.34623558  0.33825562
   0.17849731  0.47682006  0.31783569
   0.76156832  0.37425026  0.31775108
   0.88785060  0.49450090  0.32290629
   0.42843180  0.70821618  0.23006599
   0.20105169  0.84953989  0.24496568
   0.18909454  0.42086814  0.73760000
   0.18117078  0.29905290  0.71252384
   0.18342414  0.30333105  0.21159197
   0.18437973  0.28243107  0.17640340
   0.43362588  0.58705798  0.30424518
   0.36399829  0.15107681  0.77981110
   0.32759334  0.22225451  0.26329816
   0.02558386  0.52042604  0.80320837
   0.56474329  0.47024512  0.78944908
   0.42543191  0.47313063  0.32929120
   0.00757072  0.71304319  0.66767832
   0.81186724  0.01983415  0.68760172
   0.72183212  0.90128540  0.67364596
   0.61639522  0.82096610  0.82355150
   0.57910173  0.35803153  0.81476859
   0.31852267  0.91676852  0.19113096
   0.56373840  0.15699130  0.22503089
   0.51657447  0.13752382  0.25983344
   0.42376925  0.30170952  0.77571434
   0.41791739  0.31890868  0.28431932
   0.45325730  0.50453412  0.66463756
   0.45391803  0.37083070  0.68812637
   0.02874449  0.69277292  0.80763332
   0.46946577  0.86242104  0.24499359
   0.91737712  0.51767262  0.26197871
   0.82487464  0.60729068  0.19070789
   0.83151049  0.75765579  0.21270066
   0.74384708  0.97825460  0.24676669
   0.88186956  0.99002209  0.23377473
   0.27642759  0.89323355  0.78097650
   0.15311856  0.97854612  0.76511189
   0.03318713  0.61122266  0.24930623
   0.75327277  0.80114676  0.83228083
   0.33248467  0.16686055  0.66018136
   0.18539251  0.14923095  0.66166825
   0.97349436  0.82501765  0.69201327
   0.65294909  0.22817924  0.68557232
   0.56204517  0.08253524  0.68405194
   0.21894353  0.79365059  0.18797545
   0.39945457  0.77050164  0.83255767
   0.24190323  0.65344965  0.74231964
   0.50381459  0.35993774  0.19437621
   0.18750585  0.59914545  0.77240345
   0.47401787  0.68226713  0.80731852
   0.64098701  0.32112462  0.18785690
   0.70029742  0.22859146  0.76844288
   0.70271252  0.16380765  0.73728298
   0.97759776  0.47602296  0.72732128
   0.48891870  0.96471414  0.75217195
   0.38974586  0.83395315  0.29522204
   0.92314318  0.60092640  0.70679285
   0.53442391  0.76419544  0.29574201
   0.87569622  0.85056132  0.31102034
   0.01454384  0.81197936  0.32585774
   0.17645991  0.02482628  0.82955263
   0.12295598  0.58042155  0.19977880
   0.09354287  0.13548324  0.80883890
   0.03139824  0.70939133  0.20390435
   0.82808261  0.04501001  0.16795471
   0.80547793  0.14722909  0.30578073
   0.68249631  0.10672042  0.32743170
   0.87039169  0.33781478  0.69448472
   0.72099586  0.66472749  0.31424684
   0.68608691  0.28945580  0.25717089
   0.67471849  0.80996269  0.33016815
   0.85543662  0.21261642  0.66817171
   0.72118323  0.43008148  0.27446902
   0.99117615  0.24395615  0.30204431
   0.98583611  0.06332056  0.29833937
   0.55138482  0.92369305  0.78338543
   0.80673331  0.45882039  0.79228667
   0.10092524  0.24195087  0.26400499
   0.90276326  0.32852172  0.79282695
   0.87620015  0.69259869  0.76104193
   0.14126003  0.08160377  0.25098043
   0.40809725  0.58992982  0.76524362
   0.55465491  0.60994161  0.75238404
   0.11248398  0.87464515  0.27209759
   0.32864951  0.46306438  0.21051364
   0.30831398  0.08178938  0.29294996
   0.39512140  0.57618666  0.19246335
   0.27706760  0.01983870  0.32509755
   0.96677075  0.11011493  0.16744233
   0.80002448  0.80374986  0.78316441
   0.43609620  0.85782632  0.69909050
   0.58488850  0.84334755  0.70601815
   0.03866819  0.22342738  0.76145495
   0.92006735  0.12008097  0.76709218
   0.19189523  0.75796325  0.69327020
   0.31437194  0.63875225  0.69334611
   0.70406947  0.56723408  0.71382542
   0.56411117  0.55246836  0.70173832
   0.76146280  0.40295386  0.21872970
   0.83150457  0.30570755  0.19471400
 
 position of ions in cartesian coordinates  (Angst):
   7.00278000  1.18330000 17.17110000
   9.54539000  1.22935000 17.22844000
   1.72310000  1.06762000 17.34069000
   4.41783000  1.12399000 17.16016000
   8.20128000  3.32020000 17.34948000
   0.55595000  3.38634000 17.28942000
   3.15903000  3.35296000 17.08676000
   5.73231000  3.50233000 17.27653000
   9.60144000  5.51325000 17.32905000
   1.76996000  5.61187000 17.31028000
   4.41500000  5.58135000 17.37215000
   6.90816000  5.52546000 16.99951000
   0.62597000  7.70243000 17.28906000
[...]
      3.16887      0.36591     21.43474        -0.087655     -0.006289     -0.063746
      6.97151      2.56137     21.43474        -0.041027     -0.090371     -0.382686
      9.50660      2.56137     21.43474        -0.037896      0.005815     -0.167109
      1.90132      2.56137     21.43474        -0.109996     -0.003560     -0.122247
      4.43642      2.56137     21.43474         0.054502     -0.123771     -0.131574
      8.23906      4.75682     21.43474        -0.010824     -0.080305     -0.202777
      0.63377      4.75682     21.43474        -0.030149     -0.034662     -0.005561
      3.16887      4.75682     21.43474         0.037207      0.039888     -0.040830
      5.70396      4.75682     21.43474        -0.024996      0.026816     -0.260425
      9.50660      6.95228     21.43474        -0.038840      0.076624     -0.200481
      1.90132      6.95228     21.43474         0.005237     -0.029716     -0.234549
      4.43642      6.95228     21.43474        -0.011423     -0.187617     -0.132833
      6.97151      6.95228     21.43474        -0.083964     -0.136333     -0.020324
      6.97151      1.09773     23.50464        -0.043711     -0.105622     -0.039166
      9.50660      1.09773     23.50464         0.144378     -0.020850      0.036507
      1.90132      1.09773     23.50464         0.032428      0.025776     -0.080858
      4.43642      1.09773     23.50464         0.024478      0.152628      0.082089
      8.23906      3.29318     23.50464         0.080295      0.101646      0.223236
      0.63377      3.29318     23.50464         0.030482      0.086861      0.229265
      3.16887      3.29318     23.50464        -0.110020     -0.079888      0.040690
      5.70396      3.29318     23.50464         0.083548     -0.073264     -0.185131
      9.50660      5.48864     23.50464         0.007894     -0.155841      0.106021
      1.90132      5.48864     23.50464         0.016552     -0.021891      0.104245
      4.43642      5.48864     23.50464         0.144213     -0.060171     -0.181241
      6.97151      5.48864     23.50464        -0.081051      0.007133     -0.093237
      0.63377      7.68410     23.50464        -0.007263      0.150347      0.071433
      3.16887      7.68410     23.50464         0.049492      0.048848      0.013878
      5.70396      7.68410     23.50464         0.070365      0.060543      0.106723
      8.23906      7.68410     23.50464        -0.023648      0.037746      0.020527
      5.81984      1.83274     25.60634        -0.389216     -0.222410     -0.110209
      8.26184      1.73964     25.51974         0.271092      0.578300      0.497747
      0.71505      1.81271     25.58434        -0.338910     -0.024961     -0.171877
      3.13440      1.73132     25.62794         0.661390      0.819844     -0.134920
      6.92943      4.04269     25.57534         0.439951     -0.220150      0.174965
      9.61992      3.92377     25.72604        -0.386496      0.322813     -0.958930
      1.98701      4.10003     25.65804        -0.175356     -0.429814     -0.429543
      4.45738      3.93641     25.50064        -0.021048      0.219822      0.580237
      8.19382      6.17621     25.53194         0.428172     -0.086818      0.370761
      0.62716      6.25607     25.52394         0.255488     -0.168223      0.455477
      3.31269      6.19616     25.53174        -0.808958      0.365425      0.483116
      5.69345      6.26790     25.59674         0.295798     -0.315571      0.085770
      9.43141      8.39693     25.61744         0.791460     -0.052330     -0.144113
      1.98009      8.46041     25.58944        -0.621101     -0.934327      0.122197
      4.47462      8.46166     25.56304         0.093370     -0.274081      0.095669
      7.05844      8.37863     25.65594        -0.493444      0.184819     -0.228099
      5.70305      0.26370     27.59234         0.340582      0.594476      0.299555
      8.41105      0.33973     27.94354        -0.882322     -0.242397     -0.702808
      0.58034      0.37985     27.63144         1.089547     -0.726700     -0.115898
      3.19052      0.23593     27.68434        -0.027575      0.169811     -0.425598
      7.16305      2.45484     27.64914        -0.397257      0.198861     -0.158400
      9.66230      2.45956     27.67374        -0.641912      0.524000      0.035499
      1.94947      2.53583     27.65244         0.363161      0.085327     -0.015984
      4.52073      2.51147     27.57834         0.007590      0.065937     -0.061642
      8.32629      4.68882     27.57624        -0.239349      0.218994      0.256402
      0.72408      4.71429     27.66124        -0.155990      0.260194      0.080165
      3.24743      4.81469     27.63394         0.160929     -0.356755     -0.051466
      5.73839      4.70739     27.68314         0.207847      0.051101     -0.435875
      9.56308      6.93272     27.60414        -0.111756     -0.311246     -0.079912
      1.94232      6.88870     27.76584        -0.068240      0.199987     -0.583228
      4.51975      6.95295     27.75544        -0.313808     -0.369817     -0.259049
      6.97907      6.96171     27.65384         0.438024     -0.410775     -0.027198
      1.12447      3.75669     14.70331        -1.775133     -0.453180      0.666192
      8.15636      4.16636     14.00988        -0.624075      0.094113      0.357922
      1.26870      7.89654     11.23176        -2.500570      1.117997      2.045392
      1.47965      2.86030     32.77334        -0.779618      0.200001     -0.444206
      1.97595      3.15331      8.67243        -0.378642     -0.914548     -2.989845
      3.47790      2.22872     35.01514        -0.512290      1.989983      0.049942
      0.89618      5.26197     36.29314        -1.373048      1.483782     -0.624877
      4.27708      4.16085     13.79290        -0.040729      0.895335      0.376520
      0.29157      6.50824     30.83114         0.694630     -1.329576     -0.966935
      8.09815      7.98940     30.78654        -0.899693      0.594405     -1.015292
      6.37439      3.51977     35.77184         0.039760     -0.578497     -0.064361
      5.98174      0.95211     10.97470        -0.784595      0.645921     -0.789081
      4.10061      1.93392     12.33653         0.641637     -0.800534      1.035494
      4.52865      4.23782     30.71044        -0.551477     -0.836016      0.384017
      4.09741      7.16448     10.29335         1.813463      1.249252      1.916384
      0.08247      4.79109     11.88447        -0.092169     -0.538713      0.813089
      8.60842      6.27127      8.63714         0.621987      0.450292      0.085609
      8.34981      7.99351     10.94898         0.343351      3.149525     -1.080934
      1.90795      7.78727     34.60184         0.552796     -2.115160      0.535143
      7.13027      7.50071     36.60754        -0.023714      0.198728      0.285115
      2.64922      1.77535     30.10084        -2.398653     -0.240802     -0.223177
      5.65655      1.67412     30.64874         1.622081      2.241545     -0.473245
      2.78717      7.56426      7.85043        -0.449054     -0.131668      0.671957
      4.79298      6.15092     37.09934        -0.586654      1.109579      1.452303
      2.53256      5.03751     33.87674        -0.262737     -0.920840      0.602535
      5.61831      2.40893      8.25683        -1.093171      1.246577      1.322331
      7.44998      1.23922     33.92304        -0.451538      0.630205     -0.655271
      9.07838      4.61627     32.35304         0.056339      0.641972     -1.602311
      4.80758      8.54255     34.64124         0.840228     -0.713608      1.042080
      4.48651      6.54288     12.90068         0.979706      1.231250      1.498873
      9.82602      7.70922     13.94754         0.482495     -0.204032      0.704961
      1.44303      1.08591     37.07474        -0.608070      1.702198      0.063308
      1.23788      5.97225      9.34734        -0.539325     -0.334054      0.035764
      7.33254      1.60753     14.09423        -0.649407      0.211242      0.508141
      8.42103      2.13181     30.84534        -0.549199     -1.110273     -0.693177
      7.08987      6.74215     13.92428        -0.468053      2.112630      0.015149
      7.13278      3.48606     11.35527         0.278232      0.317783      2.390316
      9.78215      1.44619     12.90184        -0.106560     -1.053130      1.595711
      8.97527      6.55233     34.93294        -1.501934      0.977406     -0.429390
      9.04890      3.76719     35.12874        -0.184564     -0.319804      0.470728
      1.63499      1.70835     11.14607        -0.460727      0.390247      0.974180
      5.07479      5.33761     34.50994         0.419366      0.004406      0.103391
      4.13406      4.58148      9.46368         0.616263      0.697138     -0.799804
      2.67131      8.74788     13.57125         0.513300      0.321432      2.481488
      9.00267      0.90970      8.04955         0.879489      0.554094      0.040607
      5.21259      7.99127     31.69714        -1.906122      1.467223     -0.755166
      0.06234      1.25906     34.68764         0.857540      0.178342      0.028651
      2.87931      6.49419     31.37814        -0.058149     -0.468519     -0.742633
      6.33108      5.38740     32.02274        -3.086517      1.357627     -0.316549
      7.87352      3.47201      8.88566         1.312074     -0.201129     -3.011841
      1.56826      3.04058     15.15099         0.376484     -0.720506      0.236885
      1.81003      4.18735     14.23635         1.345132      0.975049     -1.259688
      7.72259      3.28660     14.23256         0.976325      0.666841      0.229621
      9.00314      4.34262     14.46347        -0.444395     -0.779707     -0.344380
      4.34446      6.21943     10.30501        -0.349987      0.165924     -0.109809
      2.03874      7.46051     10.97239         2.437195     -1.329203     -0.906069
      1.91749      3.69599     33.03824         0.316487     -0.068592      0.507926
      1.83714      2.62623     31.91504         0.191288     -0.177829     -0.082584
      1.85999      2.66380      9.47753        -0.488685     -1.080316      1.084009
      1.86968      2.48026      7.90138         0.485140      1.779959      2.201776
      4.39713      5.15544     13.62761        -0.427627     -0.606712     -0.840250
      3.69108      1.32673     34.92894         0.524490     -2.066256     -0.005305
      3.32192      1.95180     11.79353        -1.516632      0.322232     -1.121699
      0.25943      4.57029     35.97694         0.250068      0.399055      0.205668
      5.72671      4.12961     35.36064         0.167916      0.486152     -0.259787
      4.31404      4.15495     14.74946         0.122874     -0.532660      0.566506
      0.07677      6.26182     29.90634         0.168922      0.158463      0.334047
      8.23264      0.17418     30.79874         0.083640     -0.232885      0.555492
      7.31965      7.91493     30.17364         0.910612     -0.239978      0.682925
      6.25048      7.20958     36.88814        -0.667363     -0.214942     -0.044667
      5.87231      3.14417     36.49474         0.068881     -0.256652      0.433340
      3.22994      8.05090      8.56105         0.368352     -0.064849     -0.274291
      5.71652      1.37867     10.07948         0.474487     -0.861172      1.516168
      5.23826      1.20771     11.63834         1.121359     -0.014726     -1.336453
      4.29718      2.64956     34.74544         0.114174      0.162702      0.018402
      4.23784      2.80060     12.73510         0.037998      0.609187      0.292554
      4.59620      4.43073     29.77014         0.021951     -0.196780     -0.529969
      4.60290      3.25657     30.82224        -0.011499      0.493738     -0.265040
      0.29148      6.08381     36.17514         1.398475     -1.750936     -0.005494
      4.76056      7.57363     10.97364        -1.767378     -0.968005     -2.025499
      9.30255      4.54611     11.73443         0.106664      0.085902     -0.149608
      8.36454      5.33312      8.54210        -0.178539      0.261781      0.644285
      8.43183      6.65360      9.52719        -0.380366     -0.543033     -0.490933
      7.54289      8.59086     11.05306         0.628503     -1.113303     -0.162318
      8.94249      8.69420     10.47113        -1.124802     -2.098280      1.130811
      2.80308      7.84422     34.98114        -0.418005      0.741562     -0.708304
      1.55268      8.59342     34.27054        -0.055003      1.361679      0.099250
      0.33653      5.36765     11.16681         0.174706      0.369467     -0.616786
      7.63847      7.03553     37.27914         0.530140      0.091479     -0.170164
      3.37152      1.46534     29.57054         1.355642     -0.363302     -0.233259
      1.87995      1.31052     29.63714         0.936930      0.627299      1.000873
      9.87160      7.24516     30.99634        -1.152354      1.244649      0.311168
      6.62115      2.00383     30.70784        -1.544679     -0.637227     -0.074318
      5.69935      0.72481     30.63974        -0.312664     -1.219070      0.677088
      2.22017      6.96970      8.41971         0.217108      0.293643     -0.671177
      4.05062      6.76641     37.29154         0.670319     -0.859458     -0.338824
      2.45299      5.73848     33.24964        -0.072842      1.323996     -0.782345
      5.10887      3.16091      8.70641         0.247946     -1.261923     -0.805164
      1.90138      5.26159     34.59714         0.082168     -0.033948      0.412954
      4.80672      5.99155     36.16104        -0.168969     -0.129403     -1.022128
      6.49985      2.82006      8.41440         0.234870     -0.327301     -0.383883
      7.10128      2.00745     34.41974         0.148447     -0.293159      0.233439
      7.12577      1.43853     33.02404         0.310222     -0.329189      0.532445
      9.91321      4.18035     32.57784         0.123686     -0.283250      0.431985
      4.95782      8.47195     33.69094         0.183526     -0.248864     -0.119715
      3.95217      7.32363     13.22345         0.274708     -0.753064     -0.423973
      9.36102      5.27723     31.65834        -0.074191     -0.669630      1.050128
      5.41926      6.71103     13.24674        -1.040143     -0.068713     -0.685930
      8.87989      7.46948     13.93108         0.165396     -0.377947     -0.212512
      0.14748      7.13066     14.59567        -0.622858      0.525718     -0.655516
      1.78937      0.21802     37.15694         0.153678     -1.199782     -0.343557
      1.24682      5.09716      8.94840         0.387783     -0.554064     -0.131261
      0.94856      1.18979     36.22914         0.379176     -0.624221      0.394998
      0.31839      6.22975      9.13319        -0.258618      0.350673     -0.119760
      8.39707      0.39527      7.52295        -0.425257     -0.368872     -0.173412
      8.16785      1.29294     13.69639         0.128606     -0.236950     -0.223206
      6.92077      0.93720     14.66617         0.383114      0.182532     -0.461781
      8.82610      2.96663     31.10704         0.307836      0.506172      0.216707
      7.31117      5.83752     14.07560         0.528977     -1.901149      0.173934
      6.95718      2.54195     11.51908        -0.299625     -0.331958     -0.612219
      6.84190      7.11295     14.78874         0.042300     -0.254543     -0.027885
      8.67445      1.86716     29.92844         0.173764      0.856613      0.512342
      7.31307      3.77690     12.29389        -0.080186      0.067482     -1.556766
     10.05090      2.14238     13.52903         0.009135     -0.222005     -0.210856
      9.99675      0.55607     13.36308        -0.105846      1.384940     -0.830041
      5.59125      8.11171     35.08904        -1.131360      0.862174     -0.935337
      8.18058      4.02928     35.48774         0.147405      0.108003     -0.126748
      1.02342      2.12477     11.82519         0.844338     -0.746660     -1.419876
      9.15436      2.88502     35.51194         0.187896     -0.088584     -0.218801
      8.88500      6.08228     34.08824         0.058115      0.024773      0.371179
      1.43243      0.71663     11.24180         0.256360      0.680935     -0.384836
      4.13826      5.18066     34.27644        -0.300030      0.014877     -0.325326
      5.62441      5.35640     33.70044        -0.344345      0.132315     -0.059643
      1.14063      7.68098     12.18767         0.051716      0.181817     -1.123603
      3.33263      4.06655      9.42923        -0.727370     -0.709335      0.146104
      3.12642      0.71826     13.12168         0.043838     -0.127583      0.216622
      4.00668      5.05997      8.62073         0.441155      0.100039      0.401061
      2.80957      0.17422     14.56162        -0.302250     -0.448135     -2.144505
      9.80342      0.96701      7.50000        -0.447602     -0.159434      0.346027
      8.11255      7.05839     35.07914         1.478735     -0.930960      0.020321
      4.42218      7.53328     31.31334         0.391078      0.109270      0.704277
      5.93099      7.40613     31.62364         1.399236     -1.757935      0.240752
      0.39211      1.96210     34.10674         0.204429     -0.048970     -0.084714
      9.32983      1.05453     34.35924        -0.899076     -0.204248     -0.186697
      1.94589      6.65630     31.05264         0.992714     -0.501515      0.416810
      3.18785      5.60941     31.05604        -0.532576      0.847742      0.357862
      7.13953      4.98135     31.97334         3.453346     -1.562490      0.173881
      5.72030      4.85168     31.43194         0.331497      0.616210      0.693715
      7.72152      3.53867      9.79724        -0.300908      0.123064      2.658648
      8.43177      2.68467      8.72154        -0.189573      0.250839      0.062446
 -----------------------------------------------------------------------------------
    total drift:                               -0.005989      0.003726      0.043686


--------------------------------------------------------------------------------------------------------



  FREE ENERGIE OF THE ION-ELECTRON SYSTEM (eV)
  ---------------------------------------------------
  free  energy   TOTEN  =     -1805.99399586 eV

  energy  without entropy=    -1805.73858809  energy(sigma->0) =    -1805.86629197
 


--------------------------------------------------------------------------------------------------------


    POTLOK:  cpu time     12.2137: real time     12.2356


--------------------------------------------------------------------------------------------------------


 writing wavefunctions
     LOOP+:  cpu time    994.1751: real time    995.7257
 vacuum level on the upper side and lower side of the slab         6.148         5.806
    4ORBIT:  cpu time      0.0000: real time      0.0000

 total amount of memory used by VASP MPI-rank0 10620471. kBytes
=======================================================================

   base      :      30000. kBytes
   nonlr-proj:     190808. kBytes
   fftplans  :     468582. kBytes
   grid      :    1221211. kBytes
   one-center:       3825. kBytes
   wavefun   :    8706045. kBytes
 
  
  
 General timing and accounting informations for this job:
 ========================================================
  
                  Total CPU time used (sec):     1109.626
                            User time (sec):     1069.797
                          System time (sec):       39.829
                         Elapsed time (sec):     1111.671
  
                   Maximum memory used (kb):    11820412.
                   Average memory used (kb):          N/A
  
                          Minor page faults:      9242181
                          Major page faults:           50
                 Voluntary context switches:        23018
