246
Lattice="10.140377178 0.0 0.0 0.0 8.78182424 0.0 0.0 0.0 30.131127158" Properties=species:S:1:pos:R:3:initial_charges:R:1:forces:R:3 NELECT0=1456.0 NELECT=1461.0387975576853 U_vs_SHE=-2.091142075724614 stress="0.0021034197829682875 0.0012659028809116424 0.002713583473605509 0.0012659028809116424 0.0004528277285919563 0.0004719142634989073 0.002713583473605509 0.0004719142634989073 -0.001106332458599311" free_energy=-1796.78413045 energy=-1813.1928940787327 pbc="T T T"
Cu       7.00278000       1.18330000       9.76696000      -0.07739100      -0.29707600      -0.32961400       0.46352300
Cu       9.54539000       1.22935000       9.82430000      -0.07781200      -0.77790800      -0.50368600      -0.21919700
Cu       1.72310000       1.06762000       9.93655000      -0.14846400       1.24459100       0.62809000      -0.48914400
Cu       4.41783000       1.12399000       9.75602000      -0.11938700      -0.27064000       0.22102400       0.10153700
Cu       8.20128000       3.32020000       9.94534000      -0.07081600       0.04699400       0.33768900      -0.21422700
Cu       0.55595000       3.38634000       9.88528000      -0.01916600       0.64372600      -0.20077000      -0.08440100
Cu       3.15903000       3.35296000       9.68262000      -0.10957000      -0.01036000      -0.10532200       0.93171500
Cu       5.73231000       3.50233000       9.87239000      -0.09804900      -0.57634400      -0.84700300      -0.25259200
Cu       9.60144000       5.51325000       9.92491000      -0.11028800      -1.50803100       0.39090100      -0.36022000
Cu       1.76996000       5.61187000       9.90614000      -0.07227900       1.20383500      -0.40443100      -0.22633700
Cu       4.41500000       5.58135000       9.96801000      -0.11388400      -0.36245000      -0.33487900      -0.82543100
Cu       6.90816000       5.52546000       9.59537000      -0.06403500       0.52125000       0.52051300       0.80426700
Cu       0.62597000       7.70243000       9.88492000      -0.09426800      -0.37087600       0.17898700      -0.13795400
Cu       3.13523000       7.79481000       9.96364000      -0.11410400      -0.04791900      -0.16190600      -0.28088100
Cu       5.62162000       7.73693000       9.81621000      -0.14876600       0.48513600       0.22997400       0.04794900
Cu       8.22324000       7.73468000       9.77857000      -0.09354900      -0.16221200      -0.04999600       0.35900000
Cu       5.55739000       1.85807000      11.75190000      -0.00887200       0.82971400      -0.40994300       0.62856100
Cu       8.31000000       1.77182000      11.90130000      -0.00680000      -1.14373000       0.50283000       0.25015700
Cu       0.55921000       1.93761000      11.87170000       0.00095700       0.61686400      -0.23912300       0.70304600
Cu       3.09745000       1.84144000      11.95340000      -0.00402900      -0.01658600      -0.13373700      -0.36057100
Cu       6.91986000       4.02674000      11.91150000      -0.00363100       0.25167900       0.03237800       0.33218900
Cu       9.54248000       4.06286000      11.89500000      -0.01090100      -0.63339300      -0.05682800       0.64599400
Cu       1.91477000       4.10219000      11.96000000      -0.00084200      -0.15563300      -0.54046000      -0.31122800
Cu       4.37970000       3.94952000      11.96130000      -0.00714600       0.07015700       0.58127700      -0.20456900
Cu       8.18268000       6.21198000      11.94130000       0.00233000       0.15570900      -0.03243700      -0.32529100
Cu       0.56157000       6.20157000      11.95420000      -0.00157900       0.24240100       0.60155000       0.36504500
Cu       3.12561000       6.17738000      11.86780000      -0.01397200       0.03554800       0.55543000       0.78955300
Cu       5.68759000       6.24686000      11.83740000       0.00170800       0.10387900      -0.34215600       0.60914100
Cu       9.48122000       8.50212000      11.85620000       0.00572100      -0.08041400      -0.70635800       0.27826000
Cu       1.78589000       8.47792000      11.94220000      -0.01417400       0.47657900      -0.36706200       0.39471000
Cu       4.41501000       8.38154000      12.01350000      -0.00830300      -0.13896400       0.29552400      -0.42104900
Cu       6.94545000       8.32585000      11.97960000      -0.01504100       0.04275600       0.80125600      -0.45464300
Cu       5.70396000       0.36591000      14.03060000       0.00481700       0.02272700       0.13501700      -0.14806400
Cu       8.23906000       0.36591000      14.03060000      -0.05072400       0.01078100      -0.00331900      -0.13868000
Cu       0.63377000       0.36591000      14.03060000      -0.01943700      -0.12323900       0.09467100      -0.12225600
Cu       3.16887000       0.36591000      14.03060000      -0.02373600      -0.08101900      -0.00445600      -0.03171600
Cu       6.97151000       2.56137000      14.03060000       0.00443000      -0.04796300      -0.08157900      -0.36654000
Cu       9.50660000       2.56137000      14.03060000      -0.04678500      -0.04223300       0.01820400      -0.15618900
Cu       1.90132000       2.56137000      14.03060000      -0.01602600      -0.10040300       0.00597000      -0.09613200
Cu       4.43642000       2.56137000      14.03060000      -0.01655300       0.05006400      -0.11891200      -0.07992700
Cu       8.23906000       4.75682000      14.03060000       0.00681200      -0.00865500      -0.07020400      -0.18946100
Cu       0.63377000       4.75682000      14.03060000      -0.02148700      -0.03448600      -0.02973700       0.02766100
Cu       3.16887000       4.75682000      14.03060000      -0.04673900       0.03895600       0.05397000      -0.01083200
Cu       5.70396000       4.75682000      14.03060000      -0.02406400      -0.02945700       0.03629900      -0.24054000
Cu       9.50660000       6.95228000      14.03060000      -0.00803900      -0.04081500       0.08419600      -0.18042900
Cu       1.90132000       6.95228000      14.03060000       0.00833600       0.02167500      -0.01585300      -0.22111700
Cu       4.43642000       6.95228000      14.03060000      -0.01745900      -0.01929300      -0.18000100      -0.09731100
Cu       6.97151000       6.95228000      14.03060000      -0.04240000      -0.09116400      -0.13142000       0.00918200
Cu       6.97151000       1.09773000      16.10050000      -0.01515900      -0.04508600      -0.11604000      -0.07929200
Cu       9.50660000       1.09773000      16.10050000      -0.01760400       0.14591000      -0.02322200      -0.00412000
Cu       1.90132000       1.09773000      16.10050000      -0.04738200       0.03261000       0.01176800      -0.10485500
Cu       4.43642000       1.09773000      16.10050000       0.00609400       0.02779700       0.14376600       0.07489200
Cu       8.23906000       3.29318000      16.10050000       0.01265100       0.07155300       0.09096400       0.18140900
Cu       0.63377000       3.29318000      16.10050000      -0.02234400       0.04486900       0.06955400       0.19934200
Cu       3.16887000       3.29318000      16.10050000      -0.01772100      -0.13371600      -0.09189300       0.01902900
Cu       5.70396000       3.29318000      16.10050000      -0.04451900       0.10294000      -0.08621100      -0.20483800
Cu       9.50660000       5.48864000      16.10050000       0.00767800       0.00240500      -0.17054200       0.08022000
Cu       1.90132000       5.48864000      16.10050000      -0.01953100       0.02171600      -0.02391300       0.06213000
Cu       4.43642000       5.48864000      16.10050000      -0.03929200       0.15168100      -0.06268400      -0.22442800
Cu       6.97151000       5.48864000      16.10050000      -0.02258300      -0.08834000      -0.00474300      -0.12510400
Cu       0.63377000       7.68410000      16.10050000       0.01046100      -0.00064100       0.14396600       0.02872400
Cu       3.16887000       7.68410000      16.10050000      -0.01002600       0.03382500       0.03948800      -0.00087000
Cu       5.70396000       7.68410000      16.10050000      -0.00797900       0.07694000       0.05365000       0.08432200
Cu       8.23906000       7.68410000      16.10050000      -0.03668600      -0.01900400       0.02517300      -0.02306700
Cu       5.81984000       1.83274000      18.20220000      -0.01647300      -0.37524700      -0.21792900      -0.12713500
Cu       8.26184000       1.73964000      18.11560000      -0.00313200       0.28070100       0.59812500       0.50180100
Cu       0.71505000       1.81271000      18.18020000      -0.00706600      -0.36185500      -0.01270200      -0.18069200
Cu       3.13440000       1.73132000      18.22380000      -0.00104700       0.65843000       0.84009700      -0.14593600
Cu       6.92943000       4.04269000      18.17120000      -0.00619700       0.45489600      -0.20043400       0.17427100
Cu       9.61992000       3.92377000      18.32190000      -0.00931900      -0.39136100       0.31114300      -1.01436200
Cu       1.98701000       4.10003000      18.25390000      -0.00250000      -0.18865800      -0.40795100      -0.44637100
Cu       4.45738000       3.93641000      18.09650000      -0.00730200      -0.02148100       0.25431800       0.57654500
Cu       8.19382000       6.17621000      18.12780000      -0.01172600       0.42136900      -0.06823200       0.36481100
Cu       0.62716000       6.25607000      18.11980000      -0.00602400       0.26322600      -0.14861800       0.43691600
Cu       3.31269000       6.19616000      18.12760000      -0.00240900      -0.80881100       0.39634900       0.50826600
Cu       5.69345000       6.26790000      18.19260000       0.00467500       0.29182800      -0.30537700       0.06762500
Cu       9.43141000       8.39693000      18.21330000       0.00364000       0.79873500      -0.02798600      -0.15046700
Cu       1.98009000       8.46041000      18.18530000      -0.01393700      -0.64025600      -0.93138100       0.11970300
Cu       4.47462000       8.46166000      18.15890000       0.00946400       0.09405500      -0.27373900       0.06394000
Cu       7.05844000       8.37863000      18.25180000      -0.00679700      -0.48452700       0.20515200      -0.25680200
Cu       5.70305000       0.26370000      20.18820000      -0.08792700       0.35371500       0.57478600       0.33059200
Cu       8.41105000       0.33973000      20.53940000      -0.08985200      -0.89446200      -0.17130600      -0.73698600
Cu       0.58034000       0.37985000      20.22730000      -0.13254400       1.10004400      -0.71422900      -0.00392600
Cu       3.19052000       0.23593000      20.28020000      -0.10623400      -0.00455900       0.16395100      -0.39645100
Cu       7.16305000       2.45484000      20.24500000      -0.07165300      -0.37607000       0.21503200      -0.18698600
Cu       9.66230000       2.45956000      20.26960000      -0.10845100      -0.64889400       0.50935700       0.11923800
Cu       1.94947000       2.53583000      20.24830000      -0.01218700       0.32055200       0.11806500      -0.17061300
Cu       4.52073000       2.51147000      20.17420000      -0.05191300      -0.00248800       0.08037200      -0.10986000
Cu       8.32629000       4.68882000      20.17210000      -0.11597000      -0.24437500       0.24482000       0.34520200
Cu       0.72408000       4.71429000      20.25710000      -0.11802100      -0.16662500       0.29869500       0.18298400
Cu       3.24743000       4.81469000      20.22980000      -0.11718200       0.17291400      -0.35588100      -0.03904700
Cu       5.73839000       4.70739000      20.27900000      -0.12434400       0.19976600       0.05211800      -0.37979700
Cu       9.56308000       6.93272000      20.20000000      -0.12965100      -0.10019800      -0.33602100       0.01395700
Cu       1.94232000       6.88870000      20.36170000      -0.07750500      -0.09722500       0.19992500      -0.57946700
Cu       4.51975000       6.95295000      20.35130000      -0.06770300      -0.29576800      -0.36385300      -0.23080600
Cu       6.97907000       6.96171000      20.24970000      -0.12424300       0.43431500      -0.39832900       0.07974100
O        1.12447000       3.75669000       7.29917000      -1.33687600      -1.90495900      -0.42256200      -0.28204500
O        8.15636000       4.16636000       6.60574000      -1.38504900      -0.64828300      -0.05967100      -0.48906000
O        1.26870000       7.89654000       3.82762000      -1.29370900      -2.44326200       0.97861200       1.69087300
O        1.47965000       2.86030000      25.36920000      -1.34880200      -0.74563200       0.29553900       0.06755900
O        1.97595000       3.15331000       1.26829000      -1.36446300      -0.12438900      -0.22419900      -2.11955500
O        3.47790000       2.22872000      27.61100000      -1.29151100      -0.44121000       1.95873300       0.22739500
O        0.89618000       5.26197000      28.88900000      -1.27332600      -1.47401000       1.34444100      -0.40347300
O        4.27708000       4.16085000       6.38876000      -1.34680700       0.04359300       1.04009100      -0.37154300
O        0.29157000       6.50824000      23.42700000      -1.34705800       0.65691500      -1.37236900      -0.06721800
O        8.09815000       7.98940000      23.38240000      -1.28788600      -0.91227300       0.57249200      -0.11177600
O        6.37439000       3.51977000      28.36770000      -1.37502300       0.18774000      -0.37625700      -0.32391100
O        5.98174000       0.95211000       3.57056000      -1.31234900      -0.66424300       0.57497800      -1.29915600
O        4.10061000       1.93392000       4.93239000      -1.38485500       0.79126800      -0.92573000       0.40155200
O        4.52865000       4.23782000      23.30630000      -1.36020900      -0.38497500      -0.81735300       1.30247600
O        4.09741000       7.16448000       2.88921000      -1.27043800       1.89172000       1.30251600       1.52377100
O        0.08247000       4.79109000       4.48033000      -1.29195600      -0.05617800      -0.48099400       0.37688700
O        8.60842000       6.27127000       1.23300000      -1.34052100       0.36430000       0.41434500      -0.20302200
O        8.34981000       7.99351000       3.54484000      -1.24725500       0.32498500       3.02801900      -1.47658600
O        1.90795000       7.78727000      27.19770000      -1.34820800       0.45722100      -1.95668900       0.72373800
O        7.13027000       7.50071000      29.20340000      -1.33300000      -0.09217900       0.60518800       0.05323000
O        2.64922000       1.77535000      22.69670000      -1.31965100      -2.37341100      -0.18003700       0.76721500
O        5.65655000       1.67412000      23.24460000      -1.32032000       1.65111200       2.20878800       0.35227500
O        2.78717000       7.56426000       0.44629000      -1.31862200      -0.53485800       0.37768800       0.57530700
O        4.79298000       6.15092000      29.69520000      -1.37174400       0.22102300       0.31745400       1.06248300
O        2.53256000       5.03751000      26.47260000      -1.33372300      -0.29096000      -0.87595500       1.05079100
O        5.61831000       2.40893000       0.85269000      -1.32159000      -1.00104300       1.34235700       0.94441300
O        7.44998000       1.23922000      26.51890000      -1.28095100      -0.41152900       0.70023800      -0.32216800
O        9.07838000       4.61627000      24.94890000      -1.32053700       0.13826800       0.67988100      -0.94144800
O        4.80758000       8.54255000      27.23710000      -1.32426400       0.86867600      -0.71450400       1.27446500
O        4.48651000       6.54288000       5.49654000      -1.31848900       0.93579000       1.44707700       0.89472200
O        9.82602000       7.70922000       6.54340000      -1.32455100       0.50189200      -0.16847200      -0.09351700
O        1.44303000       1.08591000      29.67060000      -1.36335300      -1.39139900       2.04930300      -0.27079700
O        1.23788000       5.97225000       1.94320000      -1.33745000      -0.58613200      -0.01516400      -0.07854300
O        7.33254000       1.60753000       6.69009000      -1.34322800      -0.46261100       0.24945600      -0.42438500
O        8.42103000       2.13181000      23.44120000      -1.36503300      -0.50535200      -0.80149900       0.32543700
O        7.08987000       6.74215000       6.52014000      -1.36185800      -0.53833100       1.95665200      -0.74646300
O        7.13278000       3.48606000       3.95113000      -1.29288800       0.25827800       0.21294600       1.89986800
O        9.78215000       1.44619000       5.49770000      -1.32315700       0.11793100      -0.94036600       1.09156700
O        8.97527000       6.55233000      27.52880000      -1.30764600      -1.57001400       1.03173600      -0.23156900
O        9.04890000       3.76719000      27.72460000      -1.26318700      -0.10335000      -0.37107100       0.67836200
O        1.63499000       1.70835000       3.74193000      -1.32767200      -0.48076200       0.27493800       0.68627700
O        5.07479000       5.33761000      27.10580000      -1.38300500       0.31071300       0.00063100       0.41843200
O        4.13406000       4.58148000       2.05954000      -1.30544500       0.67389800       0.64235700      -0.67673500
O        2.67131000       8.74788000       6.16711000      -1.31932400       0.63649900       0.44977500       1.73441500
O        9.00267000       0.90970000       0.64541000      -1.31207500       0.19253800       0.50947100       0.19709400
O        5.21259000       7.99127000      24.29300000      -1.36252500      -1.97976800       1.31493100      -0.02984300
O        0.06234000       1.25906000      27.28350000      -1.36947300       0.81289300       0.15854100       0.43489300
O        2.87931000       6.49419000      23.97400000      -1.36794400      -0.08351300      -0.57898800      -0.00829300
O        6.33108000       5.38740000      24.61860000      -1.38748400      -2.90991100       1.37859700       0.47522100
O        7.87352000       3.47201000       1.48152000      -1.39807900       1.28405000      -0.10053900      -3.20288700
H        1.56826000       3.04058000       7.74685000       0.61666900       0.44398900      -0.77208000       0.68740400
H        1.81003000       4.18735000       6.83221000       0.64230200       1.35061200       0.95706300      -0.94555300
H        7.72259000       3.28660000       6.82842000       0.69408700       0.95871000       0.68739000       0.52784700
H        9.00314000       4.34262000       7.05933000       0.66542100      -0.45605600      -0.74142700       0.01306100
H        4.34446000       6.21943000       2.90087000       0.65432400      -0.38160900       0.16977600      -0.00812400
H        2.03874000       7.46051000       3.56825000       0.66453800       2.36414000      -1.26497100      -0.71715700
H        1.91749000       3.69599000      25.63410000       0.66972900       0.21505200      -0.25438300       0.28311600
H        1.83714000       2.62623000      24.51090000       0.66117200       0.21526400      -0.27949100      -0.44641800
H        1.85999000       2.66380000       2.07339000       0.67483300      -0.47843400      -0.97267100       0.98642800
H        1.86968000       2.48026000       0.49724000       0.67709000       0.24993500       1.05352800       1.52116300
H        4.39713000       5.15544000       6.22347000       0.64631000      -0.43924900      -0.97337100      -0.55246300
H        3.69108000       1.32673000      27.52480000       0.66133300       0.54970300      -1.98696500      -0.05179900
H        3.32192000       1.95180000       4.38939000       0.68958900      -1.41967600       0.31903100      -0.90261300
H        0.25943000       4.57029000      28.57280000       0.63007500       0.29596100       0.53425500       0.14297800
H        5.72671000       4.12961000      27.95650000       0.67661200       0.21462800       0.50826100      -0.37346600
H        4.31404000       4.15495000       7.34532000       0.61994400       0.09021100      -0.60706900       0.92077300
H        0.07677000       6.26182000      22.50220000       0.60986400       0.17825600       0.08720900      -0.28854600
H        8.23264000       0.17418000      23.39460000       0.61275500       0.11083700      -0.30857300       0.21702300
H        7.31965000       7.91493000      22.76950000       0.60148700       0.93939800      -0.25728400       0.18523500
H        6.25048000       7.20958000      29.48400000       0.65763200      -0.73412900      -0.18892000      -0.02881000
H        5.87231000       3.14417000      29.09060000       0.66551000      -0.04672700      -0.54437500       0.89033900
H        3.22994000       8.05090000       1.15691000       0.65854100       0.37355500      -0.01540100      -0.06790200
H        5.71652000       1.37867000       2.67534000       0.60400900       0.48344200      -0.91431700       1.75900600
H        5.23826000       1.20771000       4.23420000       0.67622900       0.83339300       0.14850100      -0.96669000
H        4.29718000       2.64956000      27.34130000       0.60810000       0.02478200       0.12298900      -0.04865600
H        4.23784000       2.80060000       5.33096000       0.71155000       0.06710400       0.89615100       0.70392800
H        4.59620000       4.43073000      22.36600000       0.63362500       0.03797300      -0.10953200      -1.11555800
H        4.60290000       3.25657000      23.41810000       0.68287700      -0.02413600       0.50127100      -0.49330100
H        0.29148000       6.08381000      28.77100000       0.62650300       1.42632700      -1.79788800      -0.03882400
H        4.76056000       7.57363000       3.56950000       0.59760700      -1.86515200      -1.02933200      -1.78518400
H        9.30255000       4.54611000       4.33029000       0.62546500       0.08277900       0.07363900       0.07115900
H        8.36454000       5.33312000       1.13796000       0.66446600      -0.09966800       0.04828200       0.66980400
H        8.43183000       6.65360000       2.12305000       0.67473700      -0.39169500      -0.32623500      -0.24115000
H        7.54289000       8.59086000       3.64892000       0.64139800       0.63285100      -1.10448400      -0.01059400
H        8.94249000       8.69420000       3.06699000       0.60672100      -1.10357600      -2.05445400       1.22470700
H        2.80308000       7.84422000      27.57700000       0.66779700      -0.43291900       0.71969000      -0.67127300
H        1.55268000       8.59342000      26.86640000       0.66721500       0.04407200       1.25619000      -0.06577900
H        0.33653000       5.36765000       3.76267000       0.64406000       0.13832600       0.32540400      -0.44540400
H        7.63847000       7.03553000      29.87500000       0.64891100       0.81308400      -0.24523100       0.32299800
H        3.37152000       1.46534000      22.16640000       0.61543600       1.34603000      -0.35994900      -0.55529400
H        1.87995000       1.31052000      22.23300000       0.58455600       0.83931600       0.61211400       0.63258600
H        9.87160000       7.24516000      23.59220000       0.68713500      -1.15497300       1.26533900       0.04636500
H        6.62115000       2.00383000      23.30370000       0.62296900      -1.57107300      -0.67699900      -0.35506500
H        5.69935000       0.72481000      23.23560000       0.64126200      -0.25126000      -1.03255200       0.29895600
H        2.22017000       6.96970000       1.01557000       0.66762500      -0.03508000      -0.11612800      -0.54955200
H        4.05062000       6.76641000      29.88740000       0.68166900      -0.16471000      -0.14761600       0.02554400
H        2.45299000       5.73848000      25.84550000       0.69208800      -0.02577100       1.38624100      -1.17644900
H        5.10887000       3.16091000       1.30227000       0.61847400       0.10468800      -1.14782500      -0.72235000
H        1.90138000       5.26159000      27.19300000       0.66044800       0.17544100      -0.04239300       0.22659400
H        4.80672000       5.99155000      28.75690000       0.67212400      -0.01197500      -0.29675600      -1.01507800
H        6.49985000       2.82006000       1.01026000       0.66554100       0.28596000      -0.36023300      -0.20229400
H        7.10128000       2.00745000      27.01560000       0.64510600       0.13526400      -0.32942300       0.12769400
H        7.12577000       1.43853000      25.61990000       0.62736000       0.35256900      -0.36915500       0.26753900
H        9.91321000       4.18035000      25.17370000       0.65008000       0.03665100      -0.22877400       0.17859800
H        4.95782000       8.47195000      26.28680000       0.68109700       0.20542200      -0.30522400      -0.48026500
H        3.95217000       7.32363000       5.81931000       0.65121000       0.24572400      -0.72067900      -0.16709500
H        9.36102000       5.27723000      24.25420000       0.64423000       0.03919500      -0.48453800       0.67343400
H        5.41926000       6.71103000       5.84260000       0.64922100      -0.85373500      -0.10144700      -0.34990800
H        8.87989000       7.46948000       6.52694000       0.65696300       0.17755200      -0.33675800       0.07891500
H        0.14748000       7.13066000       7.19153000       0.62446500      -0.58739400       0.57130400      -0.19878200
H        1.78937000       0.21802000      29.75280000       0.68232800       0.71217800      -1.71683600       0.00485700
H        1.24682000       5.09716000       1.54426000       0.66817500       0.46960800      -0.71130300      -0.33478900
H        0.94856000       1.18979000      28.82500000       0.68767600       0.62305100      -0.37717000       0.00985000
H        0.31839000       6.22975000       1.72905000       0.67707900       0.03860100       0.28529000      -0.05466000
H        8.39707000       0.39527000       0.11881000       0.63929100      -0.66489200      -0.39481300      -0.27126900
H        8.16785000       1.29294000       6.29225000       0.66037800      -0.14617800      -0.18881200       0.15478200
H        6.92077000       0.93720000       7.26203000       0.61977600       0.35356200       0.14447200       0.04236000
H        8.82610000       2.96663000      23.70290000       0.65480600       0.20302200       0.27706500      -0.18497800
H        7.31117000       5.83752000       6.67146000       0.69636900       0.49646000      -1.80713900       0.42912800
H        6.95718000       2.54195000       4.11494000       0.63457500      -0.25130200      -0.23503400      -0.43475600
H        6.84190000       7.11295000       7.38460000       0.60324700       0.02046000      -0.16133100       0.45879000
H        8.67445000       1.86716000      22.52430000       0.61220600       0.22554200       0.71252900      -0.14183900
H        7.31307000       3.77690000       4.88975000       0.64257700       0.04871300       0.13242700      -1.15607200
H       10.05090000       2.14238000       6.12489000       0.64299400       0.00560900      -0.18817700       0.04147700
H        9.99675000       0.55607000       5.95894000       0.67456900      -0.13802500       1.21093600      -0.53338500
H        5.59125000       8.11171000      27.68490000       0.63963400      -1.19950400       0.87719400      -0.99806500
H        8.18058000       4.02928000      28.08360000       0.64900700       0.04432400       0.08573100      -0.16957000
H        1.02342000       2.12477000       4.42105000       0.64537500       0.75206200      -0.80910000      -1.14917600
H        9.15436000       2.88502000      28.10780000       0.61018400       0.10833700      -0.06433600      -0.31063900
H        8.88500000       6.08228000      26.68410000       0.65257600       0.08805300       0.01830000       0.17697900
H        1.43243000       0.71663000       3.83766000       0.65794400       0.26777100       0.81949000      -0.23514500
H        4.13826000       5.18066000      26.87230000       0.68937900      -0.31045000       0.03285700      -0.42222600
H        5.62441000       5.35640000      26.29630000       0.68787400      -0.19915900       0.12612500      -0.49415600
H        1.14063000       7.68098000       4.78353000       0.65443800       0.00588600       0.25203800      -0.80039500
H        3.33263000       4.06655000       2.02509000       0.67198400      -0.90357400      -0.83849700       0.13075900
H        3.12642000       0.71826000       5.71754000       0.66095700      -0.12250700      -0.38988400       0.54386400
H        4.00668000       5.05997000       1.21659000       0.64194600       0.65367400       0.05238300       0.10687600
H        2.80957000       0.17422000       7.15748000       0.59052500      -0.31648000      -0.47088300      -1.68288900
H        9.80342000       0.96701000       0.09586000       0.65665800       0.34230400      -0.04551800       0.39161800
H        8.11255000       7.05839000      27.67500000       0.64068400       1.52271200      -1.01697600      -0.08058900
H        4.42218000       7.53328000      23.90920000       0.67076000       0.38763500       0.13845400       0.44978000
H        5.93099000       7.40613000      24.21950000       0.67919500       1.40733800      -1.64493300      -0.02727200
H        0.39211000       1.96210000      26.70260000       0.69209400       0.34117600       0.05473600      -0.34069000
H        9.32983000       1.05453000      26.95510000       0.68712900      -0.98836800      -0.20568500      -0.34829800
H        1.94589000       6.65630000      23.64850000       0.68729500       0.87061100      -0.46427700       0.11220700