246
Lattice="10.140377178 0.0 0.0 0.0 8.78182424 0.0 0.0 0.0 30.131127158" Properties=species:S:1:pos:R:3:initial_charges:R:1:forces:R:3 NELECT0=1456.0 NELECT=1460.8109141699595 U_vs_SHE=-1.816284293575821 stress="0.0027334252311166916 0.0012586440057982403 0.002708708854978194 0.0012586440057982403 0.0011300751593141711 0.0005304346530631887 0.002708708854978194 0.0005304346530631887 -0.0005512625690162611" free_energy=-1797.53930017 energy=-1812.8199612193937 pbc="T T T"
Cu       7.00278000       1.18330000       9.76696000      -0.07369100      -0.29728500      -0.32839900       0.46609100
Cu       9.54539000       1.22935000       9.82430000      -0.07440300      -0.77702400      -0.50375300      -0.21705100
Cu       1.72310000       1.06762000       9.93655000      -0.14517300       1.24297400       0.62654700      -0.48156500
Cu       4.41783000       1.12399000       9.75602000      -0.11558000      -0.26902200       0.22159700       0.10819800
Cu       8.20128000       3.32020000       9.94534000      -0.06762600       0.04631800       0.33797800      -0.21276000
Cu       0.55595000       3.38634000       9.88528000      -0.01658400       0.64475700      -0.19832900      -0.08739700
Cu       3.15903000       3.35296000       9.68262000      -0.10501400      -0.00961200      -0.10436700       0.93516300
Cu       5.73231000       3.50233000       9.87239000      -0.09485200      -0.57700400      -0.84638600      -0.24801000
Cu       9.60144000       5.51325000       9.92491000      -0.10711400      -1.50689200       0.39191900      -0.35418500
Cu       1.76996000       5.61187000       9.90614000      -0.06898500       1.20251500      -0.40419500      -0.22446000
Cu       4.41500000       5.58135000       9.96801000      -0.11088200      -0.36066800      -0.33283600      -0.82037900
Cu       6.90816000       5.52546000       9.59537000      -0.06005200       0.52012500       0.51992200       0.80395000
Cu       0.62597000       7.70243000       9.88492000      -0.09090800      -0.37118100       0.18071700      -0.13383500
Cu       3.13523000       7.79481000       9.96364000      -0.11081600      -0.04720400      -0.16182200      -0.27440400
Cu       5.62162000       7.73693000       9.81621000      -0.14529400       0.48358000       0.22997500       0.05649300
Cu       8.22324000       7.73468000       9.77857000      -0.08966100      -0.16104200      -0.04918500       0.36343000
Cu       5.55739000       1.85807000      11.75190000      -0.00742800       0.82997000      -0.40827400       0.62757200
Cu       8.31000000       1.77182000      11.90130000      -0.00579400      -1.14317000       0.50469300       0.24918100
Cu       0.55921000       1.93761000      11.87170000       0.00232400       0.61599500      -0.23689800       0.70103900
Cu       3.09745000       1.84144000      11.95340000      -0.00274500      -0.01656800      -0.13177100      -0.36191500
Cu       6.91986000       4.02674000      11.91150000      -0.00253700       0.25141800       0.03284100       0.33227700
Cu       9.54248000       4.06286000      11.89500000      -0.00974900      -0.63388400      -0.05703800       0.64576000
Cu       1.91477000       4.10219000      11.96000000       0.00033800      -0.15499700      -0.53910100      -0.31001700
Cu       4.37970000       3.94952000      11.96130000      -0.00604400       0.07008000       0.58173600      -0.20495300
Cu       8.18268000       6.21198000      11.94130000       0.00363200       0.15524900      -0.03151800      -0.32680800
Cu       0.56157000       6.20157000      11.95420000      -0.00049500       0.24252300       0.60262400       0.36354200
Cu       3.12561000       6.17738000      11.86780000      -0.01287900       0.03581900       0.55607700       0.78889900
Cu       5.68759000       6.24686000      11.83740000       0.00274100       0.10342100      -0.34126500       0.60832500
Cu       9.48122000       8.50212000      11.85620000       0.00695800      -0.08082000      -0.70545800       0.27968700
Cu       1.78589000       8.47792000      11.94220000      -0.01293600       0.47668600      -0.36681300       0.39464700
Cu       4.41501000       8.38154000      12.01350000      -0.00710900      -0.13883600       0.29642400      -0.41903300
Cu       6.94545000       8.32585000      11.97960000      -0.01372200       0.04216700       0.80167900      -0.45578200
Cu       5.70396000       0.36591000      14.03060000       0.00543200       0.02246700       0.13518200      -0.15091100
Cu       8.23906000       0.36591000      14.03060000      -0.04941300       0.01041200      -0.00328100      -0.14104200
Cu       0.63377000       0.36591000      14.03060000      -0.01888500      -0.12229600       0.09468500      -0.12476200
Cu       3.16887000       0.36591000      14.03060000      -0.02275300      -0.08129800      -0.00393600      -0.03411900
Cu       6.97151000       2.56137000      14.03060000       0.00540400      -0.04778900      -0.08205500      -0.36776500
Cu       9.50660000       2.56137000      14.03060000      -0.04590000      -0.04170200       0.01736300      -0.15819400
Cu       1.90132000       2.56137000      14.03060000      -0.01494100      -0.10060800       0.00522900      -0.09754800
Cu       4.43642000       2.56137000      14.03060000      -0.01557200       0.04996600      -0.11958800      -0.08158100
Cu       8.23906000       4.75682000      14.03060000       0.00771600      -0.00850600      -0.07047900      -0.19104100
Cu       0.63377000       4.75682000      14.03060000      -0.02043000      -0.03420100      -0.03001700       0.02512900
Cu       3.16887000       4.75682000      14.03060000      -0.04589300       0.03927600       0.05298600      -0.01286400
Cu       5.70396000       4.75682000      14.03060000      -0.02313100      -0.03016200       0.03595000      -0.24260000
Cu       9.50660000       6.95228000      14.03060000      -0.00689500      -0.04063400       0.08366600      -0.18237800
Cu       1.90132000       6.95228000      14.03060000       0.00917400       0.02104800      -0.01668500      -0.22329000
Cu       4.43642000       6.95228000      14.03060000      -0.01659500      -0.01875500      -0.18061600      -0.10020200
Cu       6.97151000       6.95228000      14.03060000      -0.04136700      -0.09120400      -0.13171800       0.00781400
Cu       6.97151000       1.09773000      16.10050000      -0.01434400      -0.04486900      -0.11514400      -0.07700200
Cu       9.50660000       1.09773000      16.10050000      -0.01665100       0.14575100      -0.02277800      -0.00191200
Cu       1.90132000       1.09773000      16.10050000      -0.04647700       0.03201700       0.01231300      -0.10303500
Cu       4.43642000       1.09773000      16.10050000       0.00708100       0.02793000       0.14478000       0.07710400
Cu       8.23906000       3.29318000      16.10050000       0.01368700       0.07230500       0.09141100       0.18323100
Cu       0.63377000       3.29318000      16.10050000      -0.02148900       0.04428900       0.07033000       0.20062500
Cu       3.16887000       3.29318000      16.10050000      -0.01682700      -0.13265000      -0.09119900       0.02087200
Cu       5.70396000       3.29318000      16.10050000      -0.04343300       0.10202000      -0.08555300      -0.20384700
Cu       9.50660000       5.48864000      16.10050000       0.00846400       0.00249000      -0.17059200       0.08152100
Cu       1.90132000       5.48864000      16.10050000      -0.01856400       0.02146500      -0.02366900       0.06462100
Cu       4.43642000       5.48864000      16.10050000      -0.03831000       0.15133000      -0.06235700      -0.22238600
Cu       6.97151000       5.48864000      16.10050000      -0.02171300      -0.08795700      -0.00411100      -0.12281700
Cu       0.63377000       7.68410000      16.10050000       0.01155400      -0.00058600       0.14432900       0.03115600
Cu       3.16887000       7.68410000      16.10050000      -0.00880500       0.03423800       0.03994400       0.00152400
Cu       5.70396000       7.68410000      16.10050000      -0.00686900       0.07603200       0.05338400       0.08698100
Cu       8.23906000       7.68410000      16.10050000      -0.03584100      -0.01879400       0.02595100      -0.02014100
Cu       5.81984000       1.83274000      18.20220000      -0.01534800      -0.37509600      -0.21754500      -0.12659600
Cu       8.26184000       1.73964000      18.11560000      -0.00195300       0.28061600       0.59760100       0.50085400
Cu       0.71505000       1.81271000      18.18020000      -0.00574400      -0.36094400      -0.01268800      -0.18043600
Cu       3.13440000       1.73132000      18.22380000       0.00000000       0.65774900       0.83905500      -0.14731300
Cu       6.92943000       4.04269000      18.17120000      -0.00502600       0.45415600      -0.20251900       0.17396300
Cu       9.61992000       3.92377000      18.32190000      -0.00823900      -0.39106200       0.30987600      -1.01208900
Cu       1.98701000       4.10003000      18.25390000      -0.00162800      -0.18791000      -0.40967500      -0.44669400
Cu       4.45738000       3.93641000      18.09650000      -0.00614600      -0.02140200       0.25202900       0.57797200
Cu       8.19382000       6.17621000      18.12780000      -0.01068000       0.42228400      -0.06909700       0.36321700
Cu       0.62716000       6.25607000      18.11980000      -0.00466200       0.26244700      -0.14971100       0.43700700
Cu       3.31269000       6.19616000      18.12760000      -0.00102600      -0.80897200       0.39509300       0.50790300
Cu       5.69345000       6.26790000      18.19260000       0.00602700       0.29207700      -0.30594700       0.06785900
Cu       9.43141000       8.39693000      18.21330000       0.00485300       0.79853300      -0.02939700      -0.14986900
Cu       1.98009000       8.46041000      18.18530000      -0.01268400      -0.63981500      -0.93233500       0.12094500
Cu       4.47462000       8.46166000      18.15890000       0.01073900       0.09402700      -0.27416300       0.06669000
Cu       7.05844000       8.37863000      18.25180000      -0.00551800      -0.48433300       0.20301700      -0.25577400
Cu       5.70305000       0.26370000      20.18820000      -0.08500400       0.35382400       0.57487400       0.32653200
Cu       8.41105000       0.33973000      20.53940000      -0.08610900      -0.89366000      -0.17443300      -0.73917900
Cu       0.58034000       0.37985000      20.22730000      -0.12943000       1.09877300      -0.71530100      -0.01103300
Cu       3.19052000       0.23593000      20.28020000      -0.10303300      -0.00658700       0.16297000      -0.40008400
Cu       7.16305000       2.45484000      20.24500000      -0.06849300      -0.37630200       0.21379000      -0.18795600
Cu       9.66230000       2.45956000      20.26960000      -0.10531400      -0.64880900       0.50967700       0.11304100
Cu       1.94947000       2.53583000      20.24830000      -0.00953700       0.32230500       0.11643700      -0.16460400
Cu       4.52073000       2.51147000      20.17420000      -0.04886000      -0.00184400       0.07973700      -0.10972300
Cu       8.32629000       4.68882000      20.17210000      -0.11253900      -0.24393000       0.24393900       0.34050100
Cu       0.72408000       4.71429000      20.25710000      -0.11448500      -0.16670900       0.29726300       0.17827000
Cu       3.24743000       4.81469000      20.22980000      -0.11388500       0.17098500      -0.35550300      -0.04231700
Cu       5.73839000       4.70739000      20.27900000      -0.12068700       0.20217000       0.05221400      -0.38415700
Cu       9.56308000       6.93272000      20.20000000      -0.12646500      -0.10134900      -0.33519900       0.00984600
Cu       1.94232000       6.88870000      20.36170000      -0.07410400      -0.09632800       0.19943500      -0.58320000
Cu       4.51975000       6.95295000      20.35130000      -0.06400200      -0.29665600      -0.36441200      -0.23410000
Cu       6.97907000       6.96171000      20.24970000      -0.12059500       0.43573700      -0.39964000       0.07265400
O        1.12447000       3.75669000       7.29917000      -1.33557500      -1.89324900      -0.42670000      -0.23233100
O        8.15636000       4.16636000       6.60574000      -1.38359100      -0.64387700      -0.05206300      -0.44259300
O        1.26870000       7.89654000       3.82762000      -1.29239300      -2.44697900       0.98381100       1.71572800
O        1.47965000       2.86030000      25.36920000      -1.34738500      -0.74900500       0.28918400       0.03328600
O        1.97595000       3.15331000       1.26829000      -1.36245000      -0.12417500      -0.22379100      -2.10726200
O        3.47790000       2.22872000      27.61100000      -1.29083500      -0.44468300       1.95958400       0.21316000
O        0.89618000       5.26197000      28.88900000      -1.27306800      -1.47185000       1.34436400      -0.41433000
O        4.27708000       4.16085000       6.38876000      -1.34457300       0.03924700       1.03436900      -0.32408000
O        0.29157000       6.50824000      23.42700000      -1.34464700       0.65592200      -1.37034800      -0.11989800
O        8.09815000       7.98940000      23.38240000      -1.28486200      -0.91660700       0.57527700      -0.16002700
O        6.37439000       3.51977000      28.36770000      -1.37471200       0.18647200      -0.37447800      -0.33729500
O        5.98174000       0.95211000       3.57056000      -1.31205900      -0.67188300       0.57973300      -1.26902900
O        4.10061000       1.93392000       4.93239000      -1.38461000       0.78365100      -0.91794500       0.44046900
O        4.52865000       4.23782000      23.30630000      -1.35778400      -0.39373100      -0.81847700       1.24576500
O        4.09741000       7.16448000       2.88921000      -1.26910000       1.88995900       1.30633100       1.54683800
O        0.08247000       4.79109000       4.48033000      -1.29268000      -0.06159100      -0.48155400       0.40238100
O        8.60842000       6.27127000       1.23300000      -1.33981900       0.36637600       0.41766500      -0.19421600
O        8.34981000       7.99351000       3.54484000      -1.24738500       0.32529800       3.03316600      -1.45447400
O        1.90795000       7.78727000      27.19770000      -1.34809800       0.45825800      -1.95976900       0.70618600
O        7.13027000       7.50071000      29.20340000      -1.33294500      -0.09102700       0.60521700       0.04570400
O        2.64922000       1.77535000      22.69670000      -1.31465700      -2.37322400      -0.18623800       0.71287600
O        5.65655000       1.67412000      23.24460000      -1.31930900       1.65168900       2.21008800       0.30970900
O        2.78717000       7.56426000       0.44629000      -1.31819700      -0.53497800       0.37540500       0.58008900
O        4.79298000       6.15092000      29.69520000      -1.37136700       0.22223600       0.31564000       1.05752500
O        2.53256000       5.03751000      26.47260000      -1.33419100      -0.29122500      -0.87866300       1.01853000
O        5.61831000       2.40893000       0.85269000      -1.32110800      -1.00058400       1.33943500       0.95285200
O        7.44998000       1.23922000      26.51890000      -1.27941600      -0.41145600       0.69684200      -0.34626900
O        9.07838000       4.61627000      24.94890000      -1.31899300       0.13629800       0.67803100      -0.98168200
O        4.80758000       8.54255000      27.23710000      -1.32364400       0.86934300      -0.71490500       1.25246500
O        4.48651000       6.54288000       5.49654000      -1.31659600       0.93983200       1.43714700       0.93191300
O        9.82602000       7.70922000       6.54340000      -1.32225400       0.50189000      -0.17519100      -0.04770700
O        1.44303000       1.08591000      29.67060000      -1.35960100      -1.39226500       2.05165800      -0.27534300
O        1.23788000       5.97225000       1.94320000      -1.33735900      -0.58879100      -0.01629400      -0.06406600
O        7.33254000       1.60753000       6.69009000      -1.34158600      -0.47278000       0.24253200      -0.37372200
O        8.42103000       2.13181000      23.44120000      -1.36323000      -0.50370100      -0.81683300       0.26672600
O        7.08987000       6.74215000       6.52014000      -1.35884500      -0.53552500       1.96646000      -0.69992700
O        7.13278000       3.48606000       3.95113000      -1.29136000       0.26014200       0.21944300       1.93431200
O        9.78215000       1.44619000       5.49770000      -1.32123600       0.10521700      -0.94700000       1.12499300
O        8.97527000       6.55233000      27.52880000      -1.30636700      -1.56607400       1.03016300      -0.24852900
O        9.04890000       3.76719000      27.72460000      -1.26348200      -0.10447800      -0.37311000       0.66533400
O        1.63499000       1.70835000       3.74193000      -1.32627700      -0.48075700       0.27520200       0.71653300
O        5.07479000       5.33761000      27.10580000      -1.38188800       0.31639600       0.00352500       0.38872700
O        4.13406000       4.58148000       2.05954000      -1.30561500       0.67521400       0.64539500      -0.66561800
O        2.67131000       8.74788000       6.16711000      -1.31721200       0.63279000       0.44637700       1.78478200
O        9.00267000       0.90970000       0.64541000      -1.31198000       0.19206700       0.51051300       0.20144600
O        5.21259000       7.99127000      24.29300000      -1.36126000      -1.97547200       1.32081200      -0.07321200
O        0.06234000       1.25906000      27.28350000      -1.36834000       0.81344600       0.15894500       0.41609800
O        2.87931000       6.49419000      23.97400000      -1.36657600      -0.08317100      -0.57471900      -0.05012400
O        6.33108000       5.38740000      24.61860000      -1.38635600      -2.91858700       1.37476800       0.42723500
O        7.87352000       3.47201000       1.48152000      -1.39714700       1.28163000      -0.09767400      -3.18659600
H        1.56826000       3.04058000       7.74685000       0.61680100       0.43828900      -0.76454600       0.66240700
H        1.81003000       4.18735000       6.83221000       0.64426400       1.34789200       0.95542000      -0.96105100
H        7.72259000       3.28660000       6.82842000       0.69402600       0.96078800       0.68777200       0.51153900
H        9.00314000       4.34262000       7.05933000       0.66520400      -0.45963800      -0.74480700      -0.00770100
H        4.34446000       6.21943000       2.90087000       0.65441800      -0.38132800       0.16296400      -0.01850900
H        2.03874000       7.46051000       3.56825000       0.66484000       2.36743300      -1.26956500      -0.72810400
H        1.91749000       3.69599000      25.63410000       0.67033400       0.22201900      -0.24309400       0.29838500
H        1.83714000       2.62623000      24.51090000       0.65975900       0.21275000      -0.27274200      -0.42165700
H        1.85999000       2.66380000       2.07339000       0.67310200      -0.47703200      -0.96778600       0.97246200
H        1.86968000       2.48026000       0.49724000       0.67736000       0.24953500       1.05122600       1.51799200
H        4.39713000       5.15544000       6.22347000       0.64648300      -0.43882200      -0.95523500      -0.56861200
H        3.69108000       1.32673000      27.52480000       0.66133400       0.54926300      -1.98734500      -0.04559000
H        3.32192000       1.95180000       4.38939000       0.69018300      -1.42725800       0.31983300      -0.91788000
H        0.25943000       4.57029000      28.57280000       0.63008600       0.29762900       0.53465700       0.14782000
H        5.72671000       4.12961000      27.95650000       0.67660000       0.21926900       0.50177400      -0.36334200
H        4.31404000       4.15495000       7.34532000       0.61873100       0.09206400      -0.60274700       0.89453600
H        0.07677000       6.26182000      22.50220000       0.60929500       0.17919800       0.09336700      -0.24956200
H        8.23264000       0.17418000      23.39460000       0.61310700       0.10836600      -0.30721400       0.23385100
H        7.31965000       7.91493000      22.76950000       0.60107600       0.94473700      -0.25544800       0.21490400
H        6.25048000       7.20958000      29.48400000       0.65772900      -0.73492600      -0.18933400      -0.02713700
H        5.87231000       3.14417000      29.09060000       0.66580800      -0.04737700      -0.54568700       0.89346200
H        3.22994000       8.05090000       1.15691000       0.65851100       0.37269600      -0.01313900      -0.07389900
H        5.71652000       1.37867000       2.67534000       0.60485600       0.48352100      -0.91149100       1.74536100
H        5.23826000       1.20771000       4.23420000       0.67589500       0.85006700       0.13952600      -0.98921800
H        4.29718000       2.64956000      27.34130000       0.60773100       0.02761500       0.12354500      -0.04123300
H        4.23784000       2.80060000       5.33096000       0.71140200       0.06495200       0.87818400       0.67909500
H        4.59620000       4.43073000      22.36600000       0.63293200       0.03659100      -0.11613100      -1.07646300
H        4.60290000       3.25657000      23.41810000       0.68326000      -0.02305900       0.50175400      -0.48138800
H        0.29148000       6.08381000      28.77100000       0.62681300       1.42789000      -1.79771600      -0.03440900
H        4.76056000       7.57363000       3.56950000       0.59673000      -1.86330300      -1.02671100      -1.80186100
H        9.30255000       4.54611000       4.33029000       0.62561700       0.08645000       0.07387000       0.05841500
H        8.36454000       5.33312000       1.13796000       0.66456600      -0.10059300       0.04765800       0.66788800
H        8.43183000       6.65360000       2.12305000       0.67442600      -0.39156600      -0.33171300      -0.25259300
H        7.54289000       8.59086000       3.64892000       0.64132700       0.63320100      -1.10515800      -0.02086800
H        8.94249000       8.69420000       3.06699000       0.60717600      -1.10464400      -2.05582100       1.21575400
H        2.80308000       7.84422000      27.57700000       0.66810700      -0.43320800       0.71984100      -0.66478500
H        1.55268000       8.59342000      26.86640000       0.66703400       0.04301500       1.25779800      -0.05652600
H        0.33653000       5.36765000       3.76267000       0.64513800       0.14258000       0.32553200      -0.45674700
H        7.63847000       7.03553000      29.87500000       0.64911700       0.81329800      -0.24503800       0.32298800
H        3.37152000       1.46534000      22.16640000       0.61426300       1.34263300      -0.35865800      -0.53695900
H        1.87995000       1.31052000      22.23300000       0.58463600       0.84703700       0.61461600       0.65172800
H        9.87160000       7.24516000      23.59220000       0.68778700      -1.15432000       1.26194000       0.05956400
H        6.62115000       2.00383000      23.30370000       0.62319300      -1.57227700      -0.67639100      -0.34062100
H        5.69935000       0.72481000      23.23560000       0.64154500      -0.25455100      -1.03932900       0.32024200
H        2.22017000       6.96970000       1.01557000       0.66761800      -0.03326200      -0.11409800      -0.55473200
H        4.05062000       6.76641000      29.88740000       0.68174400      -0.16574300      -0.14686800       0.02551700
H        2.45299000       5.73848000      25.84550000       0.69182200      -0.02783200       1.38126700      -1.15045400
H        5.10887000       3.16091000       1.30227000       0.61848100       0.10460100      -1.14742000      -0.72629200
H        1.90138000       5.26159000      27.19300000       0.66160400       0.16839500      -0.04047800       0.24233600
H        4.80672000       5.99155000      28.75690000       0.67200200      -0.01316400      -0.29450800      -1.00430100
H        6.49985000       2.82006000       1.01026000       0.66554000       0.28530800      -0.36042400      -0.20507600
H        7.10128000       2.00745000      27.01560000       0.64561100       0.13272700      -0.32488200       0.13770200
H        7.12577000       1.43853000      25.61990000       0.62598300       0.35105500      -0.36804300       0.28715600
H        9.91321000       4.18035000      25.17370000       0.65060600       0.04021400      -0.23035500       0.19303000
H        4.95782000       8.47195000      26.28680000       0.68061700       0.20354300      -0.30172500      -0.45430100
H        3.95217000       7.32363000       5.81931000       0.65096900       0.24861400      -0.72409500      -0.18236800
H        9.36102000       5.27723000      24.25420000       0.64326200       0.03247400      -0.49645900       0.69654800
H        5.41926000       6.71103000       5.84260000       0.64898800      -0.86664400      -0.10029300      -0.36874000
H        8.87989000       7.46948000       6.52694000       0.65732600       0.17912900      -0.33877800       0.06359400
H        0.14748000       7.13066000       7.19153000       0.62375300      -0.59333000       0.57355200      -0.22701000
H        1.78937000       0.21802000      29.75280000       0.68270600       0.71224800      -1.71755200       0.00616200
H        1.24682000       5.09716000       1.54426000       0.66835800       0.47074200      -0.71287700      -0.33832000
H        0.94856000       1.18979000      28.82500000       0.68394200       0.62639600      -0.37759600       0.01918100
H        0.31839000       6.22975000       1.72905000       0.67714600       0.03608700       0.28605300      -0.06048800
H        8.39707000       0.39527000       0.11881000       0.63940300      -0.66586900      -0.39531900      -0.27111100
H        8.16785000       1.29294000       6.29225000       0.66116600      -0.13400300      -0.19014500       0.13504900
H        6.92077000       0.93720000       7.26203000       0.61956800       0.35865600       0.15139600       0.01325200
H        8.82610000       2.96663000      23.70290000       0.65651200       0.20668200       0.28571600      -0.16454000
H        7.31117000       5.83752000       6.67146000       0.69647200       0.49793700      -1.81065600       0.41544600
H        6.95718000       2.54195000       4.11494000       0.63447300      -0.25400000      -0.23931900      -0.44604700
H        6.84190000       7.11295000       7.38460000       0.60263100       0.02332300      -0.16959200       0.42760900
H        8.67445000       1.86716000      22.52430000       0.61168300       0.22045000       0.72277700      -0.10089400
H        7.31307000       3.77690000       4.88975000       0.64168500       0.04063100       0.12700600      -1.18216300
H       10.05090000       2.14238000       6.12489000       0.64241300       0.00476500      -0.19243300       0.02504200
H        9.99675000       0.55607000       5.95894000       0.67427500      -0.13665000       1.22246200      -0.55071300
H        5.59125000       8.11171000      27.68490000       0.64007800      -1.19710700       0.87583900      -0.99085900
H        8.18058000       4.02928000      28.08360000       0.64926500       0.04294000       0.08642700      -0.16479400
H        1.02342000       2.12477000       4.42105000       0.64462200       0.76067100      -0.80742700      -1.16872500
H        9.15436000       2.88502000      28.10780000       0.61061300       0.10881500      -0.06235300      -0.30632200
H        8.88500000       6.08228000      26.68410000       0.65144700       0.08634800       0.02068700       0.19151800
H        1.43243000       0.71663000       3.83766000       0.65793000       0.26705100       0.81795000      -0.24421700
H        4.13826000       5.18066000      26.87230000       0.68937700      -0.30668000       0.03253000      -0.41506600
H        5.62441000       5.35640000      26.29630000       0.68733700      -0.21142400       0.12558900      -0.46384300
H        1.14063000       7.68098000       4.78353000       0.65332700       0.00952900       0.24892800      -0.82256900
H        3.33263000       4.06655000       2.02509000       0.67202200      -0.90579400      -0.83948500       0.12535700
H        3.12642000       0.71826000       5.71754000       0.66185500      -0.11471400      -0.37678800       0.52530900
H        4.00668000       5.05997000       1.21659000       0.64230100       0.65447600       0.05294600       0.10345900
H        2.80957000       0.17422000       7.15748000       0.58952000      -0.31670400      -0.47176200      -1.71707100
H        9.80342000       0.96701000       0.09586000       0.65675100       0.34331600      -0.04560100       0.39241200
H        8.11255000       7.05839000      27.67500000       0.64085700       1.51743900      -1.01492600      -0.07183800
H        4.42218000       7.53328000      23.90920000       0.67041700       0.38959800       0.13734800       0.46580700
H        5.93099000       7.40613000      24.21950000       0.67918000       1.40493300      -1.65019800      -0.01185600
H        0.39211000       1.96210000      26.70260000       0.69157800       0.33501300       0.04991400      -0.32525500
H        9.32983000       1.05453000      26.95510000       0.68675600      -0.98493300      -0.20518600      -0.34004100
H        1.94589000       6.65630000      23.64850000       0.68722500       0.87962800      -0.46724900       0.12941800