 vasp.6.4.3 19Mar24 (build Sep  4 2024 12:23:58) complex                         
 executed on              LinuxNV date 2025.10.06  11:45:54
 running    4 mpi-ranks, with    1 threads/rank, on    1 nodes
 distrk:  each k-point on    2 cores,    2 groups
 distr:  one band on NCORE=   1 cores,    2 groups
 OpenACC runtime initialized ...    4 GPUs detected


--------------------------------------------------------------------------------------------------------


 INCAR:
   ENCUT = 800.000000
   SIGMA = 0.100000
   EDIFF = 1.00e-07
   ALGO = fast
   METAGGA = R2SCAN
   PREC = Accurate
   IBRION = -1
   ICHARG = 2
   ISMEAR = 0
   ISTART = 0
   KPAR = 2
   NELM = 160
   NPAR = 2
   NCORE = 1
   LAECHG = .TRUE.
   LASPH = .TRUE.
   LVHAR = .TRUE.
   LMIXTAU = .TRUE.
   LREAL = Auto

 POTCAR:    PAW_PBE Cu 22Jun2005                  
 POTCAR:    PAW_PBE O_h 06Feb2004                 
 POTCAR:    PAW_PBE H_h 06Feb2004                 
 POTCAR:    PAW_PBE Cu 22Jun2005                  
   VRHFIN =Cu: d10 p1                                                                               
   LEXCH  = PE                                                                                      
   EATOM  =  1390.9808 eV,  102.2342 Ry                                                             
                                                                                                    
   TITEL  = PAW_PBE Cu 22Jun2005                                                                    
   LULTRA =        F    use ultrasoft PP ?                                                          
   IUNSCR =        1    unscreen: 0-lin 1-nonlin 2-no                                               
   RPACOR =    2.000    partial core radius                                                         
   POMASS =   63.546; ZVAL   =   11.000    mass and valenz                                          
   RCORE  =    2.300    outmost cutoff radius                                                       
   RWIGS  =    2.200; RWIGS  =    1.164    wigner-seitz radius (au A)                               
   ENMAX  =  295.446; ENMIN  =  221.585 eV                                                          
   ICORE  =        3    local potential                                                             
   LCOR   =        T    correct aug charges                                                         
   LPAW   =        T    paw PP                                                                      
   EAUG   =  586.980                                                                                
   DEXC   =    0.000                                                                                
   RMAX   =    2.344    core radius for proj-oper                                                   
   RAUG   =    1.300    factor for augmentation sphere                                              
   RDEP   =    2.302    radius for radial grids                                                     
   RDEPT  =    1.771    core radius for aug-charge                                                  
                                                                                                    
   Atomic configuration                                                                             
    9 entries                                                                                       
     n  l   j            E        occ.                                                              
     1  0  0.50     -8850.2468   2.0000                                                             
     2  0  0.50     -1062.3498   2.0000                                                             
     2  1  1.50      -916.8226   6.0000                                                             
     3  0  0.50      -114.6929   2.0000                                                             
     3  1  1.50       -72.1325   6.0000                                                             
     3  2  2.50        -5.0394  10.0000                                                             
     4  0  0.50        -4.6097   1.0000                                                             
     4  1  0.50        -4.0817   0.0000                                                             
     4  3  2.50        -1.3606   0.0000                                                             
   Description                                                                                      
     l       E           TYP  RCUT    TYP  RCUT                                                     
     2     -5.0393973     23  2.200                                                                 
     2     10.8846608     23  2.200                                                                 
     0     -4.6097109     23  2.200                                                                 
     0      8.2520465     23  2.200                                                                 
     1     -2.7211652     23  2.200                                                                 
     1     21.7055443     23  2.200                                                                 
     3      2.7211652     23  2.300                                                                 
  local pseudopotential read in
  partial core-charges read in
  partial kinetic energy density read in
  atomic valenz-charges read in
  non local Contribution for L=            2  read in
    real space projection operators read in
  non local Contribution for L=            2  read in
    real space projection operators read in
  non local Contribution for L=            0  read in
    real space projection operators read in
  non local Contribution for L=            0  read in
    real space projection operators read in
  non local Contribution for L=            1  read in
    real space projection operators read in
  non local Contribution for L=            1  read in
    real space projection operators read in
    PAW grid and wavefunctions read in
 
   number of l-projection  operators is LMAX  =            6
   number of lm-projection operators is LMMAX =           18
 
 POTCAR:    PAW_PBE O_h 06Feb2004                 
   VRHFIN =O: s2p4                                                                                  
   LEXCH  = PE                                                                                      
   EATOM  =   432.3788 eV,   31.7789 Ry                                                             
                                                                                                    
   TITEL  = PAW_PBE O_h 06Feb2004                                                                   
   LULTRA =        F    use ultrasoft PP ?                                                          
   IUNSCR =        1    unscreen: 0-lin 1-nonlin 2-no                                               
   RPACOR =    0.800    partial core radius                                                         
   POMASS =   16.000; ZVAL   =    6.000    mass and valenz                                          
   RCORE  =    1.100    outmost cutoff radius                                                       
   RWIGS  =    1.400; RWIGS  =    0.741    wigner-seitz radius (au A)                               
   ENMAX  =  700.000; ENMIN  =  500.000 eV                                                          
   ICORE  =        2    local potential                                                             
   LCOR   =        T    correct aug charges                                                         
   LPAW   =        T    paw PP                                                                      
   EAUG   =  888.804                                                                                
   DEXC   =    0.000                                                                                
   RMAX   =    1.128    core radius for proj-oper                                                   
   RAUG   =    1.300    factor for augmentation sphere                                              
   RDEP   =    1.125    radius for radial grids                                                     
   RDEPT  =    1.088    core radius for aug-charge                                                  
                                                                                                    
   Atomic configuration                                                                             
    4 entries                                                                                       
     n  l   j            E        occ.                                                              
     1  0  0.50      -514.6923   2.0000                                                             
     2  0  0.50       -23.9615   2.0000                                                             
     2  1  0.50        -9.0305   4.0000                                                             
     3  2  1.50        -9.5241   0.0000                                                             
   Description                                                                                      
     l       E           TYP  RCUT    TYP  RCUT                                                     
     0    -23.9615319     23  1.100                                                                 
     0    -25.3221145     23  1.100                                                                 
     1     -9.0304911     23  1.100                                                                 
     1     -5.4802209     23  1.100                                                                 
     2     -9.5240782      7  1.100                                                                 
  local pseudopotential read in
  partial core-charges read in
  partial kinetic energy density read in
  atomic valenz-charges read in
  non local Contribution for L=            0  read in
    real space projection operators read in
  non local Contribution for L=            0  read in
    real space projection operators read in
  non local Contribution for L=            1  read in
    real space projection operators read in
  non local Contribution for L=            1  read in
    real space projection operators read in
    PAW grid and wavefunctions read in
 
   number of l-projection  operators is LMAX  =            4
   number of lm-projection operators is LMMAX =            8
 
 POTCAR:    PAW_PBE H_h 06Feb2004                 
   VRHFIN =H: ultrasoft test                                                                        
   LEXCH  = PE                                                                                      
   EATOM  =    12.4884 eV,    0.9179 Ry                                                             
                                                                                                    
   TITEL  = PAW_PBE H_h 06Feb2004                                                                   
   LULTRA =        F    use ultrasoft PP ?                                                          
   IUNSCR =        0    unscreen: 0-lin 1-nonlin 2-no                                               
   RPACOR =    0.000    partial core radius                                                         
   POMASS =    1.000; ZVAL   =    1.000    mass and valenz                                          
   RCORE  =    0.800    outmost cutoff radius                                                       
   RWIGS  =    0.700; RWIGS  =    0.370    wigner-seitz radius (au A)                               
   ENMAX  =  700.000; ENMIN  =  350.000 eV                                                          
   RCLOC  =    0.701    cutoff for local pot                                                        
   LCOR   =        T    correct aug charges                                                         
   LPAW   =        T    paw PP                                                                      
   EAUG   = 1000.000                                                                                
   RMAX   =    0.819    core radius for proj-oper                                                   
   RAUG   =    1.000    factor for augmentation sphere                                              
   RDEP   =    0.817    radius for radial grids                                                     
   RDEPT  =    0.817    core radius for aug-charge                                                  
                                                                                                    
   Atomic configuration                                                                             
    2 entries                                                                                       
     n  l   j            E        occ.                                                              
     1  0  0.50        -6.4927   1.0000                                                             
     2  1  0.50        -3.4015   0.0000                                                             
   Description                                                                                      
     l       E           TYP  RCUT    TYP  RCUT                                                     
     0     -6.4927493     23  0.800                                                                 
     0      6.8029130     23  0.800                                                                 
     1     -6.8029130     23  0.800                                                                 
  local pseudopotential read in
  atomic valenz-charges read in
  non local Contribution for L=            0  read in
    real space projection operators read in
  non local Contribution for L=            0  read in
    real space projection operators read in
  non local Contribution for L=            1  read in
    real space projection operators read in
    PAW grid and wavefunctions read in
 
   number of l-projection  operators is LMAX  =            3
   number of lm-projection operators is LMMAX =            5
 
 Optimization of the real space projectors (new method)

 maximal supplied QI-value         = 16.25
 optimisation between [QCUT,QGAM] = [ 14.46, 28.93] = [ 58.58,234.33] Ry 
 Optimized for a Real-space Cutoff    1.35 Angstroem

   l    n(q)    QCUT    max X(q) W(low)/X(q) W(high)/X(q)  e(spline) 
   2     11    14.464     4.610    0.56E-04    0.10E-03    0.52E-06
   2     11    14.464     8.522    0.88E-04    0.16E-03    0.84E-06
   0     12    14.464    51.609    0.44E-04    0.29E-04    0.63E-06
   0     12    14.464    27.747    0.38E-04    0.27E-04    0.60E-06
   1     11    14.464    20.408    0.64E-04    0.66E-04    0.14E-06
   1     11    14.464    13.425    0.56E-04    0.59E-04    0.13E-06
 Optimization of the real space projectors (new method)

 maximal supplied QI-value         = 34.20
 optimisation between [QCUT,QGAM] = [ 14.37, 28.73] = [ 57.79,231.16] Ry 
 Optimized for a Real-space Cutoff    0.98 Angstroem

   l    n(q)    QCUT    max X(q) W(low)/X(q) W(high)/X(q)  e(spline) 
   0      8    14.366   280.207    0.54E-04    0.14E-03    0.22E-06
   0      8    14.366   228.978    0.55E-04    0.14E-03    0.22E-06
   1      8    14.366    86.127    0.24E-03    0.25E-03    0.26E-06
   1      8    14.366    65.368    0.24E-03    0.24E-03    0.26E-06
 Optimization of the real space projectors (new method)

 maximal supplied QI-value         = 47.24
 optimisation between [QCUT,QGAM] = [ 14.17, 28.82] = [ 56.25,232.56] Ry 
 Optimized for a Real-space Cutoff    0.95 Angstroem

   l    n(q)    QCUT    max X(q) W(low)/X(q) W(high)/X(q)  e(spline) 
   0      8    14.173    34.671    0.25E-03    0.45E-03    0.25E-06
   0      8    14.173    17.046    0.24E-03    0.43E-03    0.25E-06
   1      8    14.173     1.978    0.58E-04    0.22E-03    0.31E-06
 -----------------------------------------------------------------------------
|                                                                             |
|               ----> ADVICE to this user running VASP <----                  |
|                                                                             |
|     You enforced a specific xc type in the INCAR file but a different       |
|     type was found in the POTCAR file.                                      |
|     I HOPE YOU KNOW WHAT YOU ARE DOING!                                     |
|                                                                             |
 -----------------------------------------------------------------------------

  PAW_PBE Cu 22Jun2005                  :
 energy of atom  1       EATOM=-1390.9808
 kinetic energy error for atom=    0.0007 (will be added to EATOM!!)
  PAW_PBE O_h 06Feb2004                 :
 energy of atom  2       EATOM= -432.3788
 kinetic energy error for atom=    0.0500 (will be added to EATOM!!)
  PAW_PBE H_h 06Feb2004                 :
 energy of atom  3       EATOM=  -12.4884
 kinetic energy error for atom=    0.0035 (will be added to EATOM!!)
 
 
 POSCAR: Cu O  H
  positions in cartesian coordinates
  No initial velocities read in


 exchange-correlation table for R2SCAN
   RHO(1)=    0.500       N(1)  =     2000
   RHO(2)=  100.500       N(2)  =     4000
 


--------------------------------------------------------------------------------------------------------


 ion  position               nearest neighbor table
   1  0.691  0.135  0.324-   5 2.46  16 2.54   2 2.54  17 2.55  18 2.57   4 2.59  15 2.62   8 2.65
                            32 2.75
   2  0.941  0.140  0.326-   3 2.33   6 2.45  19 2.45  18 2.48   5 2.49  29 2.53   1 2.54  13 2.61
                            16 2.63
   3  0.170  0.122  0.330-   2 2.33  13 2.41  19 2.42  30 2.43  14 2.49  20 2.56   6 2.60   4 2.70
                             7 2.71
   4  0.436  0.128  0.324-  17 2.41  14 2.48  15 2.48   7 2.56   1 2.59  20 2.66   3 2.70   8 2.72
                            31 2.72
   5  0.809  0.378  0.330-  21 2.45   1 2.46   8 2.48  22 2.48   2 2.49   6 2.50  18 2.50  12 2.58
                             9 2.60
   6  0.055  0.386  0.328-   9 2.39  22 2.41   2 2.45  19 2.46   5 2.50  10 2.54  23 2.58   3 2.60
                             7 2.61
   7  0.312  0.382  0.321-   4 2.56  11 2.57   8 2.58   6 2.61  24 2.65  10 2.66  23 2.70   3 2.71
                            20 2.73
   8  0.565  0.399  0.328-  12 2.36  21 2.42  11 2.46   5 2.48  17 2.50  24 2.53   7 2.58   1 2.65
                             4 2.72
   9  0.947  0.628  0.329-  10 2.31   6 2.39  26 2.41  22 2.45  13 2.48  25 2.56   5 2.60  16 2.62
                            12 2.71
  10  0.175  0.639  0.329-   9 2.31  13 2.38  26 2.45  27 2.45   6 2.54  23 2.55  14 2.58  11 2.65
                             7 2.66
  11  0.435  0.636  0.331-  28 2.36  27 2.37   8 2.46  15 2.47  12 2.52  14 2.56   7 2.57  24 2.58
                            10 2.65
  12  0.681  0.629  0.318-   8 2.36  11 2.52  15 2.57  16 2.58   5 2.58  28 2.65   9 2.71  25 2.76
                            21 2.76
  13  0.062  0.877  0.328-  10 2.38   3 2.41   9 2.48  29 2.49  30 2.49  14 2.51  16 2.55  26 2.56
                             2 2.61
  14  0.309  0.888  0.331-   4 2.48  31 2.49  30 2.49  15 2.49   3 2.49  27 2.50  13 2.51  11 2.56
                            10 2.58
  15  0.554  0.881  0.326-  11 2.47   4 2.48  14 2.49  28 2.51  12 2.57  31 2.59  16 2.60  32 2.60
                             1 2.62
  16  0.811  0.881  0.325-   1 2.54  13 2.55  29 2.55  12 2.58  15 2.60  32 2.61   9 2.62   2 2.63
                            25 2.65
  17  0.548  0.212  0.390-  24 2.41   4 2.41  20 2.47   8 2.50  31 2.54   1 2.55  21 2.57  40 2.64
                            32 2.71  33 2.73  18 2.76  37 2.77
  18  0.819  0.202  0.395-  29 2.36  19 2.40   2 2.48   5 2.50  34 2.55  38 2.57   1 2.57  22 2.60
                            32 2.61  37 2.64  21 2.65  17 2.76
  19  0.055  0.221  0.394-  18 2.40  22 2.42   3 2.42   2 2.45   6 2.46  29 2.53  20 2.54  38 2.54
                            23 2.56  30 2.56  39 2.62  35 2.67
  20  0.305  0.210  0.397-  24 2.47  17 2.47  39 2.50  30 2.51  19 2.54  36 2.55  23 2.55   3 2.56
                            40 2.57  31 2.60   4 2.66   7 2.73
  21  0.682  0.459  0.395-   8 2.42   5 2.45  25 2.52  28 2.54  24 2.54  44 2.55  17 2.57  37 2.58
                            41 2.60  22 2.62  18 2.65  12 2.76
  22  0.941  0.463  0.395-   6 2.41  19 2.42  26 2.43   9 2.45   5 2.48  23 2.51  25 2.54  42 2.56
                            41 2.60  18 2.60  38 2.61  21 2.62
  23  0.189  0.467  0.397-  27 2.40  24 2.47  26 2.50  43 2.51  22 2.51  42 2.52  20 2.55  10 2.55
                            19 2.56  39 2.58   6 2.58   7 2.70
  24  0.432  0.450  0.397-  17 2.41  20 2.47  23 2.47  40 2.49   8 2.53  43 2.53  21 2.54  27 2.56
                            11 2.58  44 2.59  28 2.65   7 2.65
  25  0.807  0.707  0.396-  32 2.45  28 2.50  26 2.52  21 2.52  48 2.53  22 2.54  41 2.55   9 2.56
                            45 2.58  29 2.63  16 2.65  12 2.76
  26  0.055  0.706  0.397-   9 2.41  22 2.43  10 2.45  23 2.50  45 2.51  25 2.52  42 2.53  13 2.56
                            27 2.57  46 2.58  30 2.58  29 2.61
  27  0.308  0.703  0.394-  11 2.37  23 2.40  10 2.45  14 2.50  31 2.56  24 2.56  28 2.56  26 2.57
                            43 2.59  46 2.60  47 2.65  30 2.66
  28  0.561  0.711  0.393-  11 2.36  32 2.43  31 2.49  25 2.50  15 2.51  21 2.54  27 2.56  47 2.62
                            48 2.64  24 2.65  44 2.65  12 2.65
  29  0.935  0.968  0.393-  18 2.36  30 2.45  13 2.49  19 2.53   2 2.53  32 2.54  16 2.55  34 2.59
                            26 2.61  35 2.61  25 2.63  45 2.67
  30  0.176  0.965  0.396-   3 2.43  29 2.45  35 2.48  13 2.49  14 2.49  20 2.51  19 2.56  26 2.58
                            46 2.59  36 2.59  31 2.63  27 2.66
  31  0.435  0.954  0.399-  47 2.47  14 2.49  28 2.49  36 2.49  33 2.51  32 2.53  17 2.54  27 2.56
                            15 2.59  20 2.60  30 2.63   4 2.72
  32  0.685  0.948  0.398-  28 2.43  25 2.45  48 2.47  31 2.53  33 2.53  29 2.54  34 2.56  15 2.60
                            16 2.61  18 2.61  17 2.71   1 2.75
  33  0.562  0.042  0.466-  31 2.51  32 2.53  47 2.54  36 2.54  48 2.54  52 2.54  40 2.54  63 2.54
                            49 2.54  37 2.54  34 2.54  17 2.73
  34  0.813  0.042  0.466-  45 2.54  35 2.54  48 2.54  50 2.54  38 2.54  64 2.54  49 2.54  37 2.54
                            33 2.54  18 2.55  32 2.56  29 2.59
  35  0.063  0.042  0.466-  30 2.48  34 2.54  46 2.54  45 2.54  61 2.54  36 2.54  51 2.54  39 2.54
                            50 2.54  38 2.54  29 2.61  19 2.67
  36  0.313  0.042  0.466-  31 2.49  33 2.54  47 2.54  46 2.54  62 2.54  35 2.54  52 2.54  51 2.54
                            40 2.54  39 2.54  20 2.55  30 2.59
  37  0.688  0.292  0.466-  38 2.54  40 2.54  41 2.54  44 2.54  53 2.54  56 2.54  49 2.54  34 2.54
                            33 2.54  21 2.58  18 2.64  17 2.77
  38  0.937  0.292  0.466-  41 2.54  37 2.54  42 2.54  53 2.54  34 2.54  39 2.54  54 2.54  50 2.54
                            35 2.54  19 2.54  18 2.57  22 2.61
  39  0.187  0.292  0.466-  20 2.50  42 2.54  43 2.54  54 2.54  55 2.54  38 2.54  35 2.54  51 2.54
                            36 2.54  40 2.54  23 2.58  19 2.62
  40  0.438  0.292  0.466-  24 2.49  44 2.54  37 2.54  43 2.54  56 2.54  33 2.54  55 2.54  52 2.54
                            36 2.54  39 2.54  20 2.57  17 2.64
  41  0.813  0.542  0.466-  38 2.54  37 2.54  42 2.54  45 2.54  57 2.54  48 2.54  53 2.54  60 2.54
                            44 2.54  25 2.55  22 2.60  21 2.60
  42  0.063  0.542  0.466-  23 2.52  26 2.53  39 2.54  38 2.54  41 2.54  43 2.54  46 2.54  58 2.54
                            54 2.54  45 2.54  57 2.54  22 2.56
  43  0.313  0.542  0.466-  23 2.51  24 2.53  44 2.54  40 2.54  39 2.54  42 2.54  47 2.54  46 2.54
                            55 2.54  59 2.54  58 2.54  27 2.59
  44  0.562  0.542  0.466-  40 2.54  43 2.54  37 2.54  47 2.54  59 2.54  48 2.54  56 2.54  60 2.54
                            41 2.54  21 2.55  24 2.59  28 2.65
  45  0.937  0.792  0.466-  26 2.51  34 2.54  48 2.54  35 2.54  41 2.54  64 2.54  46 2.54  57 2.54
                            42 2.54  61 2.54  25 2.58  29 2.67
  46  0.187  0.792  0.466-  35 2.54  36 2.54  42 2.54  45 2.54  61 2.54  43 2.54  58 2.54  62 2.54
                            47 2.54  26 2.58  30 2.59  27 2.60
  47  0.438  0.792  0.466-  31 2.47  33 2.54  48 2.54  36 2.54  44 2.54  63 2.54  43 2.54  59 2.54
                            62 2.54  46 2.54  28 2.62  27 2.65
  48  0.688  0.792  0.466-  32 2.47  25 2.53  45 2.54  47 2.54  34 2.54  33 2.54  41 2.54  44 2.54
                            60 2.54  64 2.54  63 2.54  28 2.64
  49  0.688  0.125  0.534-  66 2.48  65 2.51  50 2.54  52 2.54  53 2.54  56 2.54  64 2.54  63 2.54
                            37 2.54  34 2.54  33 2.54  80 2.62
  50  0.937  0.125  0.534-  66 2.45  53 2.54  64 2.54  49 2.54  54 2.54  61 2.54  34 2.54  51 2.54
                            38 2.54  35 2.54  67 2.58  77 2.58
  51  0.187  0.125  0.534-  67 2.50  78 2.52  54 2.54  55 2.54  61 2.54  62 2.54  50 2.54  35 2.54
                            39 2.54  36 2.54  52 2.54  68 2.54
  52  0.438  0.125  0.534-  79 2.50  56 2.54  63 2.54  49 2.54  55 2.54  62 2.54  33 2.54  40 2.54
                            36 2.54  51 2.54  68 2.57  65 2.62
  53  0.813  0.375  0.534-  50 2.54  49 2.54  54 2.54  38 2.54  57 2.54  37 2.54  60 2.54  41 2.54
                            56 2.54  66 2.54  69 2.56  70 2.69
  54  0.063  0.375  0.534-  51 2.54  50 2.54  53 2.54  39 2.54  55 2.54  58 2.54  38 2.54  42 2.54
                            57 2.54  67 2.55  70 2.58  71 2.67
  55  0.313  0.375  0.534-  72 2.46  56 2.54  52 2.54  51 2.54  54 2.54  40 2.54  39 2.54  59 2.54
                            58 2.54  43 2.54  71 2.59  68 2.64
  56  0.562  0.375  0.534-  72 2.44  69 2.52  52 2.54  55 2.54  49 2.54  40 2.54  59 2.54  37 2.54
                            60 2.54  44 2.54  53 2.54  65 2.56
  57  0.937  0.625  0.534-  74 2.50  73 2.51  60 2.54  53 2.54  64 2.54  41 2.54  58 2.54  45 2.54
                            54 2.54  61 2.54  42 2.54  70 2.72
  58  0.187  0.625  0.534-  74 2.51  54 2.54  61 2.54  57 2.54  42 2.54  55 2.54  62 2.54  46 2.54
                            43 2.54  59 2.54  71 2.56  75 2.57
  59  0.438  0.625  0.534-  75 2.42  72 2.53  60 2.54  56 2.54  63 2.54  44 2.54  55 2.54  62 2.54
                            47 2.54  43 2.54  58 2.54  76 2.56
  60  0.688  0.625  0.534-  73 2.47  69 2.53  57 2.54  59 2.54  53 2.54  56 2.54  64 2.54  63 2.54
                            48 2.54  41 2.54  44 2.54  76 2.57
  61  0.063  0.875  0.534-  74 2.47  64 2.54  51 2.54  50 2.54  35 2.54  62 2.54  58 2.54  46 2.54
                            57 2.54  45 2.54  78 2.60  77 2.60
  62  0.313  0.875  0.534-  75 2.52  78 2.52  63 2.54  52 2.54  51 2.54  36 2.54  61 2.54  59 2.54
                            58 2.54  47 2.54  46 2.54  79 2.56
  63  0.562  0.875  0.534-  79 2.52  76 2.53  52 2.54  62 2.54  59 2.54  49 2.54  47 2.54  33 2.54
                            60 2.54  48 2.54  64 2.54  80 2.64
  64  0.813  0.875  0.534-  73 2.53  77 2.53  50 2.54  61 2.54  57 2.54  49 2.54  45 2.54  34 2.54
                            60 2.54  48 2.54  63 2.54  80 2.55
  65  0.574  0.209  0.604-  66 2.45  88 2.46  69 2.47  49 2.51  72 2.51  85 2.52  81 2.53  79 2.54
                            80 2.56  56 2.56  52 2.62  68 2.69
  66  0.815  0.198  0.601-  77 2.43  65 2.45  50 2.45  80 2.46  49 2.48  85 2.50  53 2.54  70 2.58
                            67 2.60  69 2.66  86 2.67
  67  0.071  0.206  0.603-  68 2.42  70 2.45  78 2.48  86 2.49  51 2.50  83 2.50  87 2.51  54 2.55
                            50 2.58  66 2.60  71 2.62  77 2.62
  68  0.309  0.197  0.605-  78 2.36  67 2.42  79 2.45  87 2.48  88 2.52  51 2.54  84 2.54  52 2.57
                            72 2.57  71 2.63  55 2.64  65 2.69
  69  0.683  0.460  0.603-  65 2.47  72 2.48  73 2.48  92 2.51  56 2.52  89 2.52  60 2.53  76 2.55
                            53 2.56  85 2.62  66 2.66  70 2.70
  70  0.949  0.447  0.608-  89 2.38  90 2.43  86 2.44  67 2.45  71 2.51  66 2.58  54 2.58  74 2.61
                            73 2.67  53 2.69  69 2.70  57 2.72
  71  0.196  0.467  0.606-  90 2.45  91 2.45  72 2.48  75 2.48  70 2.51  87 2.53  74 2.55  58 2.56
                            55 2.59  67 2.62  68 2.63  54 2.67
  72  0.440  0.448  0.601-  56 2.44  55 2.46  69 2.48  71 2.48  65 2.51  88 2.52  59 2.53  75 2.53
                            68 2.57  91 2.61  76 2.64  92 2.65
  73  0.808  0.703  0.602-  60 2.47  69 2.48  80 2.48  76 2.50  57 2.51  64 2.53  89 2.53  77 2.54
                            96 2.57  74 2.57  93 2.60  70 2.67
  74  0.062  0.712  0.601-  61 2.47  93 2.50  57 2.50  58 2.51  77 2.53  71 2.55  73 2.57  78 2.59
                            70 2.61  90 2.64  94 2.68  75 2.69
  75  0.327  0.706  0.602-  76 2.38  59 2.42  71 2.48  91 2.52  62 2.52  72 2.53  79 2.55  58 2.57
                            78 2.63  95 2.64  74 2.69  94 2.71
  76  0.561  0.714  0.604-  75 2.38  73 2.50  79 2.51  80 2.51  96 2.52  63 2.53  69 2.55  95 2.55
                            59 2.56  60 2.57  92 2.61  72 2.64
  77  0.930  0.956  0.604-  80 2.37  66 2.43  93 2.47  83 2.51  74 2.53  64 2.53  73 2.54  50 2.58
                            61 2.60  67 2.62  82 2.64  78 2.69
  78  0.195  0.963  0.604-  68 2.36  67 2.48  84 2.48  79 2.49  62 2.52  51 2.52  83 2.57  74 2.59
                            61 2.60  75 2.63  94 2.68  77 2.69
  79  0.441  0.964  0.603-  81 2.44  68 2.45  78 2.49  52 2.50  76 2.51  63 2.52  65 2.54  84 2.54
                            75 2.55  62 2.56  80 2.59  95 2.66
  80  0.696  0.954  0.606-  77 2.37  96 2.45  81 2.46  66 2.46  73 2.48  76 2.51  64 2.55  65 2.56
                            79 2.59  49 2.62  63 2.64  82 2.76
  81  0.562  0.030  0.670-  95 2.41  79 2.44  96 2.44  80 2.46  84 2.51  65 2.53  88 2.54  85 2.63
                            82 2.73
  82  0.829  0.039  0.682-  83 2.33  85 2.47  86 2.48  93 2.50  96 2.61  77 2.64  81 2.73  80 2.76

  83  0.057  0.043  0.671-  82 2.33  86 2.33  67 2.50  77 2.51  93 2.51  87 2.55  78 2.57  84 2.61
                            94 2.65
  84  0.315  0.027  0.673-  95 2.46  94 2.47  78 2.48  81 2.51  79 2.54  68 2.54  87 2.61  83 2.61
                            88 2.64
  85  0.706  0.280  0.672-  82 2.47  86 2.50  66 2.50  89 2.52  65 2.52  69 2.62  81 2.63  88 2.64
                            92 2.67
  86  0.953  0.280  0.673-  83 2.33  87 2.43  70 2.44  82 2.48  67 2.49  85 2.50  90 2.56  89 2.60
                            66 2.67
  87  0.192  0.289  0.672-  86 2.43  68 2.48  90 2.50  67 2.51  71 2.53  83 2.55  88 2.57  84 2.61
                            91 2.62
  88  0.446  0.286  0.670-  65 2.46  92 2.51  68 2.52  72 2.52  81 2.54  87 2.57  91 2.63  84 2.64
                            85 2.64
  89  0.821  0.534  0.669-  70 2.38  85 2.52  69 2.52  73 2.53  90 2.54  93 2.56  92 2.59  86 2.60
                            96 2.64
  90  0.071  0.537  0.672-  70 2.43  71 2.45  94 2.49  87 2.50  91 2.53  89 2.54  86 2.56  93 2.57
                            74 2.64
  91  0.320  0.548  0.671-  71 2.45  94 2.45  95 2.49  92 2.49  75 2.52  90 2.53  72 2.61  87 2.62
                            88 2.63
  92  0.566  0.536  0.673-  91 2.49  69 2.51  88 2.51  95 2.56  96 2.57  89 2.59  76 2.61  72 2.65
                            85 2.67
  93  0.943  0.789  0.670-  77 2.47  82 2.50  74 2.50  83 2.51  94 2.53  89 2.56  90 2.57  96 2.58
                            73 2.60
  94  0.192  0.784  0.676-  91 2.45  84 2.47  90 2.49  93 2.53  95 2.58  83 2.65  74 2.68  78 2.68
                            75 2.71
  95  0.446  0.792  0.675-  81 2.41  84 2.46  96 2.46  91 2.49  76 2.55  92 2.56  94 2.58  75 2.64
                            79 2.66
  96  0.688  0.793  0.672-  81 2.44  80 2.45  95 2.46  76 2.52  73 2.57  92 2.57  93 2.58  82 2.61
                            89 2.64
  97  0.111  0.428  0.242- 148 0.93 147 0.95
  98  0.804  0.474  0.219- 150 0.98 149 1.01
  99  0.125  0.899  0.127- 152 0.92 230 0.99
 100  0.146  0.326  0.842- 154 0.96 153 0.98
 101  0.195  0.359  0.042- 155 0.95 156 1.03
 102  0.343  0.254  0.916- 158 0.93 171 0.96
 103  0.088  0.599  0.959- 160 0.99 175 1.03
 104  0.422  0.474  0.212- 162 0.96 157 1.02
 105  0.029  0.741  0.778- 188 0.94 163 0.98
 106  0.799  0.910  0.776- 164 0.98 165 0.99
 107  0.629  0.401  0.941- 167 0.96 161 0.98
 108  0.590  0.108  0.119- 169 1.03 170 1.03
 109  0.404  0.220  0.164- 159 0.95 172 0.96
 110  0.447  0.483  0.773- 173 0.96 174 0.99
 111  0.404  0.816  0.096- 151 0.98 176 1.03
 112  0.008  0.546  0.149- 184 0.95 177 0.96
 113  0.849  0.714  0.041- 178 0.97 179 0.98
 114  0.823  0.910  0.118- 180 1.01 181 1.03
 115  0.188  0.887  0.903- 183 0.94 182 0.97
 116  0.703  0.854  0.969- 185 0.96 166 0.97
 117  0.261  0.202  0.753- 186 0.95 187 1.01
 118  0.558  0.191  0.771- 190 0.95 189 1.02
 119  0.275  0.861  0.015- 168 0.97 191 1.00
 120  0.473  0.700  0.986- 196 0.95 192 0.98
 121  0.250  0.574  0.879- 193 0.94 195 0.98
 122  0.554  0.274  0.028- 197 0.99 194 1.01
 123  0.735  0.141  0.880- 199 0.98 198 0.98
 124  0.895  0.526  0.828- 200 0.97 203 1.00
 125  0.474  0.973  0.904- 201 0.96 222 1.00
 126  0.442  0.745  0.182- 202 1.00 204 1.01
 127  0.969  0.878  0.217- 205 0.98 206 0.98
 128  0.142  0.124  0.985- 207 0.94 209 0.99
 129  0.122  0.680  0.064- 208 0.96 210 0.98
 130  0.723  0.183  0.222- 213 0.97 212 0.98
 131  0.830  0.243  0.778- 214 0.96 218 0.99
 132  0.699  0.768  0.216- 215 0.94 217 0.97
 133  0.703  0.397  0.131- 216 0.97 219 1.00
 134  0.965  0.165  0.182- 220 0.97 221 1.03
 135  0.885  0.746  0.914- 226 0.97 236 1.01
 136  0.892  0.429  0.920- 225 0.97 223 0.98
 137  0.161  0.195  0.124- 224 1.00 227 1.02
 138  0.500  0.608  0.900- 228 0.98 229 0.98
 139  0.408  0.522  0.068- 231 0.95 233 0.98
 140  0.263  0.996  0.205- 232 0.99 234 1.02
 141  0.888  0.104  0.021- 211 0.95 235 0.97
 142  0.514  0.910  0.806- 238 0.93 237 0.99
 143  0.006  0.143  0.905- 240 0.95 239 0.97
 144  0.284  0.740  0.796- 242 0.99 241 1.00
 145  0.624  0.613  0.817- 243 0.91 244 1.00
 146  0.776  0.395  0.049- 245 0.93 246 0.98
 147  0.155  0.346  0.257-  97 0.95
 148  0.178  0.477  0.227-  97 0.93
 149  0.762  0.374  0.227-  98 1.01
 150  0.888  0.495  0.234-  98 0.98
 151  0.428  0.708  0.096- 111 0.98
 152  0.201  0.850  0.118-  99 0.92
 153  0.189  0.421  0.851- 100 0.98
 154  0.181  0.299  0.813- 100 0.96
 155  0.183  0.303  0.069- 101 0.95
 156  0.184  0.282  0.017- 101 1.03
 157  0.434  0.587  0.207- 104 1.02
 158  0.364  0.151  0.914- 102 0.93
 159  0.328  0.222  0.146- 109 0.95
 160  0.026  0.520  0.948- 103 0.99
 161  0.565  0.470  0.928- 107 0.98
 162  0.425  0.473  0.244- 104 0.96
 163  0.008  0.713  0.747- 105 0.98
 164  0.812  0.020  0.776- 106 0.98
 165  0.722  0.901  0.756- 106 0.99
 166  0.616  0.821  0.979- 116 0.97
 167  0.579  0.358  0.965- 107 0.96
 168  0.319  0.917  0.038- 119 0.97
 169  0.564  0.157  0.089- 108 1.03
 170  0.517  0.138  0.141- 108 1.03
 171  0.424  0.302  0.907- 102 0.96
 172  0.418  0.319  0.177- 109 0.96
 173  0.453  0.505  0.742- 110 0.96
 174  0.454  0.371  0.777- 110 0.99
 175  0.029  0.693  0.955- 103 1.03
 176  0.469  0.862  0.118- 111 1.03
 177  0.917  0.518  0.144- 112 0.96
 178  0.825  0.607  0.038- 113 0.97
 179  0.832  0.758  0.070- 113 0.98
 180  0.744  0.978  0.121- 114 1.01
 181  0.882  0.990  0.102- 114 1.03
 182  0.276  0.893  0.915- 115 0.97
 183  0.153  0.979  0.892- 115 0.94
 184  0.033  0.611  0.125- 112 0.95
 185  0.753  0.801  0.991- 116 0.96
 186  0.332  0.167  0.736- 117 0.95
 187  0.185  0.149  0.738- 117 1.01
 188  0.973  0.825  0.783- 105 0.94
 189  0.653  0.228  0.773- 118 1.02
 190  0.562  0.083  0.771- 118 0.95
 191  0.219  0.794  0.034- 119 1.00
 192  0.399  0.771  0.992- 120 0.98
 193  0.242  0.653  0.858- 121 0.94
 194  0.504  0.360  0.043- 122 1.01
 195  0.188  0.599  0.902- 121 0.98
 196  0.474  0.682  0.954- 120 0.95
 197  0.641  0.321  0.034- 122 0.99
 198  0.700  0.229  0.897- 123 0.98
 199  0.703  0.164  0.850- 123 0.98
 200  0.978  0.476  0.835- 124 0.97
 201  0.489  0.965  0.872- 125 0.96
 202  0.390  0.834  0.193- 126 1.00
 203  0.923  0.601  0.805- 124 1.00
 204  0.534  0.764  0.194- 126 1.01
 205  0.876  0.851  0.217- 127 0.98
 206  0.015  0.812  0.239- 127 0.98
 207  0.176  0.025  0.987- 128 0.94
 208  0.123  0.580  0.051- 129 0.96
 209  0.094  0.135  0.957- 128 0.99
 210  0.031  0.709  0.057- 129 0.98
 211  0.828  0.045  0.004- 141 0.95
 212  0.805  0.147  0.209- 130 0.98
 213  0.682  0.107  0.241- 130 0.97
 214  0.870  0.338  0.787- 131 0.96
 215  0.721  0.665  0.221- 132 0.94
 216  0.686  0.289  0.137- 133 0.97
 217  0.675  0.810  0.245- 132 0.97
 218  0.855  0.213  0.748- 131 0.99
 219  0.721  0.430  0.162- 133 1.00
 220  0.991  0.244  0.203- 134 0.97
 221  0.986  0.063  0.198- 134 1.03
 222  0.551  0.924  0.919- 125 1.00
 223  0.807  0.459  0.932- 136 0.98
 224  0.101  0.242  0.147- 137 1.00
 225  0.903  0.329  0.933- 136 0.97
 226  0.876  0.693  0.886- 135 0.97
 227  0.141  0.082  0.127- 137 1.02
 228  0.408  0.590  0.892- 138 0.98
 229  0.555  0.610  0.873- 138 0.98
 230  0.112  0.875  0.159-  99 0.99
 231  0.329  0.463  0.067- 139 0.95
 232  0.308  0.082  0.190- 140 0.99
 233  0.395  0.576  0.040- 139 0.98
 234  0.277  0.020  0.238- 140 1.02
 235  0.967  0.110  0.003- 141 0.97
 236  0.800  0.804  0.918- 135 1.01
 237  0.436  0.858  0.794- 142 0.99
 238  0.585  0.843  0.804- 142 0.93
 239  0.039  0.223  0.886- 143 0.97
 240  0.920  0.120  0.895- 143 0.95
 241  0.192  0.758  0.785- 144 1.00
 242  0.314  0.639  0.785- 144 0.99
 243  0.704  0.567  0.815- 145 0.91
 244  0.564  0.552  0.797- 145 1.00
 245  0.761  0.403  0.079- 146 0.93
 246  0.832  0.306  0.044- 146 0.98
 
  LATTYP: Found a simple orthorhombic cell.
 ALAT       =     8.7818242399
 B/A-ratio  =     1.1547005384
 C/A-ratio  =     3.4310783653
  
  Lattice vectors:
  
 A1 = (   0.0000000000,  -8.7818242399,   0.0000000000)
 A2 = (  10.1403771778,   0.0000000000,   0.0000000000)
 A3 = (   0.0000000000,   0.0000000000,  30.1311271579)


Analysis of symmetry for initial positions (statically):
=====================================================================
 Subroutine PRICEL returns:
 Original cell was already a primitive cell.
 

 Routine SETGRP: Setting up the symmetry group for a 
 simple orthorhombic supercell.


 Subroutine GETGRP returns: Found  1 space group operations
 (whereof  1 operations were pure point group operations)
 out of a pool of  8 trial point group operations.


The static configuration has the point symmetry C_1 .


Analysis of symmetry for dynamics (positions and initial velocities):
=====================================================================
 Subroutine PRICEL returns:
 Original cell was already a primitive cell.
 

 Routine SETGRP: Setting up the symmetry group for a 
 simple orthorhombic supercell.


 Subroutine GETGRP returns: Found  1 space group operations
 (whereof  1 operations were pure point group operations)
 out of a pool of  8 trial point group operations.


The dynamic configuration has the point symmetry C_1 .


 Subroutine INISYM returns: Found  1 space group operations
 (whereof  1 operations are pure point group operations),
 and found     1 'primitive' translations


----------------------------------------------------------------------------------------

                                     Primitive cell                                     

  volume of cell :    2683.2073

  direct lattice vectors                    reciprocal lattice vectors
    10.140377178  0.000000000  0.000000000     0.098615661  0.000000000  0.000000000
     0.000000000  8.781824240  0.000000000     0.000000000  0.113871557  0.000000000
     0.000000000  0.000000000 30.131127158     0.000000000  0.000000000  0.033188271

  length of vectors
    10.140377178  8.781824240 30.131127158     0.098615661  0.113871557  0.033188271

  position of ions in fractional coordinates (direct lattice)
     0.690583780  0.134744213  0.324148511
     0.941324946  0.139987999  0.326051526
     0.169924646  0.121571552  0.329776910
     0.435667226  0.127990491  0.323785431
     0.808774650  0.378076344  0.330068635
     0.054825278  0.385607809  0.328075347
     0.311529832  0.381806776  0.321349412
     0.565295541  0.398815770  0.327647550
     0.946852354  0.627802362  0.329390598
     0.174545776  0.639032375  0.328767654
     0.435388144  0.635557015  0.330821013
     0.681252766  0.629192734  0.318453736
     0.061730840  0.877087697  0.328063399
     0.309182779  0.887607152  0.330675980
     0.554379773  0.881016266  0.325783033
     0.810940250  0.880760055  0.324533827
     0.548045689  0.211581324  0.390025237
     0.819496144  0.201759902  0.394983564
     0.055146667  0.220638668  0.394001191
     0.305457080  0.209687640  0.396712673
     0.682406569  0.458531154  0.395322085
     0.941037974  0.462644194  0.394774478
     0.188826310  0.467122763  0.396931716
     0.431907011  0.449737992  0.396974860
     0.806940398  0.707367835  0.396311095
     0.055379991  0.706182432  0.396739224
     0.308234097  0.703427879  0.393871757
     0.560885448  0.711339675  0.392862834
     0.934996779  0.968149643  0.393486773
     0.176116723  0.965393951  0.396340965
     0.435389130  0.954419010  0.398707288
     0.684930144  0.948077503  0.397582206
     0.562499787  0.041666628  0.465651349
     0.812500349  0.041666628  0.465651349
     0.062500042  0.041666628  0.465651349
     0.312500210  0.041666628  0.465651349
     0.687500068  0.291667190  0.465651349
     0.937499645  0.291667190  0.465651349
     0.187499929  0.291667190  0.465651349
     0.437500492  0.291667190  0.465651349
     0.812500349  0.541666500  0.465651349
     0.062500042  0.541666500  0.465651349
     0.312500210  0.541666500  0.465651349
     0.562499787  0.541666500  0.465651349
     0.937499645  0.791666949  0.465651349
     0.187499929  0.791666949  0.465651349
     0.437500492  0.791666949  0.465651349
     0.687500068  0.791666949  0.465651349
     0.687500068  0.125000224  0.534347750
     0.937499645  0.125000224  0.534347750
     0.187499929  0.125000224  0.534347750
     0.437500492  0.125000224  0.534347750
     0.812500349  0.374999534  0.534347750
     0.062500042  0.374999534  0.534347750
     0.312500210  0.374999534  0.534347750
     0.562499787  0.374999534  0.534347750
     0.937499645  0.624999983  0.534347750
     0.187499929  0.624999983  0.534347750
     0.437500492  0.624999983  0.534347750
     0.687500068  0.624999983  0.534347750
     0.062500042  0.875000432  0.534347750
     0.312500210  0.875000432  0.534347750
     0.562499787  0.875000432  0.534347750
     0.812500349  0.875000432  0.534347750
     0.573927370  0.208696957  0.604099538
     0.814746814  0.198095516  0.601225434
     0.070515326  0.206416110  0.603369396
     0.309100928  0.197148104  0.604816405
     0.683350321  0.460347405  0.603070702
     0.948674771  0.446805799  0.608072174
     0.195950305  0.466876800  0.605815372
     0.439567476  0.448245136  0.600591538
     0.808038977  0.703294649  0.601630331
     0.061848094  0.712388432  0.601364825
     0.326683115  0.705566387  0.601623693
     0.561463336  0.713735532  0.603780931
     0.930084733  0.956171494  0.604467928
     0.195267885  0.963400060  0.603538656
     0.441267610  0.963542399  0.602662486
     0.696072727  0.954087644  0.605745676
     0.562410046  0.030027588  0.670011443
     0.829461257  0.038685812  0.681667164
     0.057230317  0.043254566  0.671309105
     0.314635239  0.026865603  0.673064764
     0.706388912  0.279536453  0.671896537
     0.952854103  0.280073927  0.672712969
     0.192248273  0.288758911  0.672006059
     0.445814778  0.285984999  0.669546808
     0.821102594  0.533923234  0.669477112
     0.071405628  0.536823543  0.672298115
     0.320247457  0.548256247  0.671392076
     0.565895124  0.536037829  0.673024938
     0.943069457  0.789439621  0.670403065
     0.191543171  0.784426995  0.675769608
     0.445718135  0.791743243  0.675424450
     0.688245602  0.792740757  0.672052522
     0.110890353  0.427780140  0.242246829
     0.804344834  0.474429900  0.219233086
     0.125113689  0.899191305  0.127032088
     0.145916663  0.325706815  0.841959873
     0.194859616  0.359072320  0.042092352
     0.342975408  0.253787817  0.916361338
     0.088377778  0.599188717  0.958775948
     0.421787072  0.473802468  0.212031895
     0.028753467  0.741103422  0.777501614
     0.798604417  0.909765418  0.776021417
     0.628614684  0.400801690  0.941474902
     0.589893245  0.108418134  0.118500711
     0.404384366  0.220218482  0.163697494
     0.446595814  0.482567162  0.773495790
     0.404068796  0.815830493  0.095887883
     0.008132686  0.545568878  0.148694404
     0.848925030  0.714119280  0.040921138
     0.823422034  0.910233430  0.117647109
     0.188153751  0.886748560  0.902644626
     0.703156290  0.854117527  0.969210340
     0.261254582  0.202161869  0.753264220
     0.557824418  0.190634651  0.771448074
     0.274858612  0.861354064  0.014811527
     0.472662892  0.700414838  0.985532332
     0.249750079  0.573629107  0.878579811
     0.554053355  0.274308610  0.028299207
     0.734684703  0.141111911  0.880116428
     0.895270446  0.525661853  0.828010843
     0.474102680  0.972753470  0.903952244
     0.442440150  0.745047933  0.182420657
     0.968999459  0.877860885  0.217164129
     0.142305358  0.123654263  0.984715900
     0.122074355  0.680069407  0.064491447
     0.723103280  0.183051944  0.222032517
     0.830445441  0.242752524  0.777972888
     0.699172218  0.767739118  0.216392170
     0.703403816  0.396963080  0.131131171
     0.964673190  0.164679907  0.182459155
     0.885102185  0.746124019  0.913633262
     0.892363256  0.428975791  0.920131526
     0.161235620  0.194532474  0.124188185
     0.500453771  0.607801962  0.899594624
     0.407683060  0.521700261  0.068352571
     0.263433002  0.996134717  0.204675715
     0.887804254  0.103588500  0.021419876
     0.514043009  0.909978358  0.806242656
     0.006147631  0.143371123  0.905492179
     0.283945059  0.739503527  0.795655598
     0.624343640  0.613471626  0.817048757
     0.776452381  0.395363185  0.049169087
     0.154654997  0.346235579  0.257104554
     0.178497305  0.476820064  0.226749234
     0.761568319  0.374250259  0.226623450
     0.887850604  0.494500901  0.234286954
     0.428431795  0.708216178  0.096274858
     0.201051693  0.849539890  0.118424046
     0.189094544  0.420868136  0.850751446
     0.181170776  0.299052899  0.813474381
     0.183424144  0.303331054  0.068812228
     0.184379729  0.282431068  0.016502668
     0.433625882  0.587057980  0.206546206
     0.363998295  0.151076811  0.913500509
     0.327593337  0.222254505  0.145676263
     0.025583762  0.520426039  0.948281817
     0.564743293  0.470245121  0.927827886
     0.425431907  0.473130626  0.243778467
     0.007570695  0.713043193  0.746809102
     0.811867237  0.019834034  0.776426314
     0.721832124  0.901285403  0.755680326
     0.616395218  0.820966100  0.978522969
     0.579101733  0.358031534  0.965466703
     0.318522669  0.916768519  0.038395842
     0.563738399  0.156991300  0.088789908
     0.516574473  0.137523818  0.140525775
     0.423769247  0.301709523  0.907410462
     0.417917394  0.318908683  0.176925343
     0.453257302  0.504534124  0.742288859
     0.453918027  0.370830697  0.777206238
     0.028744493  0.692772918  0.954859732
     0.469465772  0.862421041  0.118465532
     0.917377119  0.517672624  0.143714836
     0.824874643  0.607290678  0.037766924
     0.831510490  0.757655792  0.070460358
     0.743847085  0.978254605  0.121101344
     0.881869564  0.990022091  0.101788094
     0.276427588  0.893233545  0.915232937
     0.153118565  0.978546116  0.891649352
     0.033187622  0.611222663  0.124876510
     0.753272769  0.801146756  0.991499583
     0.332484674  0.166860547  0.735664480
     0.185392512  0.149230953  0.737874819
     0.973494361  0.825017650  0.782984316
     0.652949085  0.228179242  0.773409500
     0.562045169  0.082535243  0.771149379
     0.218943532  0.793650591  0.033705012
     0.399454569  0.770501642  0.991911117
     0.241903231  0.653449653  0.857767446
     0.503814593  0.359937743  0.043220089
     0.187505846  0.599145446  0.902488641
     0.474017871  0.682267128  0.954391777
     0.640987005  0.321124623  0.033528782
     0.700297422  0.228591457  0.896601042
     0.702712520  0.163807651  0.850280173
     0.977597759  0.476022964  0.835471566
     0.488918697  0.964714138  0.872413430
     0.389745858  0.833953151  0.193132835
     0.923143177  0.600926397  0.804954951
     0.534423908  0.764195436  0.193905789
     0.875696224  0.850561318  0.216617851
     0.014543739  0.811979357  0.238674443
     0.176459906  0.024825935  0.987443976
     0.122955979  0.580421546  0.051251319
     0.093543266  0.135483240  0.956651899
     0.031398043  0.709391333  0.057384179
     0.828082610  0.045010238  0.003942999
     0.805477928  0.147229091  0.208828895
     0.682496309  0.106720423  0.241014216
     0.870391687  0.337814777  0.786658258
     0.720995864  0.664727492  0.221414219
     0.686086906  0.289455804  0.136567742
     0.674718492  0.809962692  0.245082103
     0.855436622  0.212616416  0.747542562
     0.721183233  0.430081484  0.162282346
     0.991176149  0.243956146  0.203274506
     0.985836111  0.063321012  0.197766913
     0.551384816  0.923693048  0.918813951
     0.806733306  0.458820387  0.932046115
     0.100925240  0.241950868  0.146727004
     0.902763264  0.328521720  0.932849271
     0.876200150  0.692598694  0.885599130
     0.141260032  0.081603432  0.127365298
     0.408097246  0.589929821  0.891845163
     0.554654911  0.609941608  0.872728719
     0.112483982  0.874645152  0.158757088
     0.328649511  0.463064380  0.067209235
     0.308313975  0.081788929  0.189755264
     0.395121397  0.576186663  0.040376518
     0.277067603  0.019838703  0.237544383
     0.966770745  0.110115162  0.003181268
     0.800024482  0.803749860  0.918485387
     0.436096205  0.857826323  0.793504998
     0.584888500  0.843347555  0.803803319
     0.038668088  0.223427382  0.886213113
     0.920067354  0.120080973  0.894593151
     0.191895229  0.757963245  0.784852816
     0.314371935  0.638752251  0.784965656
     0.704069471  0.567234081  0.815409257
     0.564111167  0.552468356  0.797441127
     0.761462800  0.402953863  0.079422850
     0.831504573  0.305707553  0.043722228

  ion indices of the primitive-cell ions
   primitive index   ion index
                 1           1
                 2           2
                 3           3
                 4           4
                 5           5
                 6           6
                 7           7
                 8           8
                 9           9
                10          10
                11          11
                12          12
                13          13
                14          14
                15          15
                16          16
                17          17
                18          18
                19          19
                20          20
                21          21
                22          22
                23          23
                24          24
                25          25
                26          26
                27          27
                28          28
                29          29
                30          30
                31          31
                32          32
                33          33
                34          34
                35          35
                36          36
                37          37
                38          38
                39          39
                40          40
                41          41
                42          42
                43          43
                44          44
                45          45
                46          46
                47          47
                48          48
                49          49
                50          50
                51          51
                52          52
                53          53
                54          54
                55          55
                56          56
                57          57
                58          58
                59          59
                60          60
                61          61
                62          62
                63          63
                64          64
                65          65
                66          66
                67          67
                68          68
                69          69
                70          70
                71          71
                72          72
                73          73
                74          74
                75          75
                76          76
                77          77
                78          78
                79          79
                80          80
                81          81
                82          82
                83          83
                84          84
                85          85
                86          86
                87          87
                88          88
                89          89
                90          90
                91          91
                92          92
                93          93
                94          94
                95          95
                96          96
                97          97
                98          98
                99          99
               100         100
               101         101
               102         102
               103         103
               104         104
               105         105
               106         106
               107         107
               108         108
               109         109
               110         110
               111         111
               112         112
               113         113
               114         114
               115         115
               116         116
               117         117
               118         118
               119         119
               120         120
               121         121
               122         122
               123         123
               124         124
               125         125
               126         126
               127         127
               128         128
               129         129
               130         130
               131         131
               132         132
               133         133
               134         134
               135         135
               136         136
               137         137
               138         138
               139         139
               140         140
               141         141
               142         142
               143         143
               144         144
               145         145
               146         146
               147         147
               148         148
               149         149
               150         150
               151         151
               152         152
               153         153
               154         154
               155         155
               156         156
               157         157
               158         158
               159         159
               160         160
               161         161
               162         162
               163         163
               164         164
               165         165
               166         166
               167         167
               168         168
               169         169
               170         170
               171         171
               172         172
               173         173
               174         174
               175         175
               176         176
               177         177
               178         178
               179         179
               180         180
               181         181
               182         182
               183         183
               184         184
               185         185
               186         186
               187         187
               188         188
               189         189
               190         190
               191         191
               192         192
               193         193
               194         194
               195         195
               196         196
               197         197
               198         198
               199         199
               200         200
               201         201
               202         202
               203         203
               204         204
               205         205
               206         206
               207         207
               208         208
               209         209
               210         210
               211         211
               212         212
               213         213
               214         214
               215         215
               216         216
               217         217
               218         218
               219         219
               220         220
               221         221
               222         222
               223         223
               224         224
               225         225
               226         226
               227         227
               228         228
               229         229
               230         230
               231         231
               232         232
               233         233
               234         234
               235         235
               236         236
               237         237
               238         238
               239         239
               240         240
               241         241
               242         242
               243         243
               244         244
               245         245
               246         246

----------------------------------------------------------------------------------------

 
 
 KPOINTS: KPOINTS created by Atomic Simulation Env

Automatic generation of k-mesh.
 Grid dimensions read from file:
 generate k-points for:    2    2    1

 Generating k-lattice:

  Cartesian coordinates                     Fractional coordinates (reciprocal lattice)
     0.049307831  0.000000000  0.000000000     0.500000000  0.000000000  0.000000000
     0.000000000  0.056935779  0.000000000     0.000000000  0.500000000  0.000000000
     0.000000000  0.000000000  0.033188271     0.000000000  0.000000000  1.000000000

  Length of vectors
     0.049307831  0.056935779  0.033188271

  Shift w.r.t. Gamma in fractional coordinates (k-lattice)
     0.500000000  0.500000000  0.000000000

 
 Subroutine IBZKPT returns following result:
 ===========================================
 
 Found      2 irreducible k-points:
 
 Following reciprocal coordinates:
            Coordinates               Weight
  0.250000  0.250000  0.000000      2.000000
 -0.250000  0.250000  0.000000      2.000000
 
 Following cartesian coordinates:
            Coordinates               Weight
  0.024654  0.028468  0.000000      2.000000
 -0.024654  0.028468  0.000000      2.000000
 


--------------------------------------------------------------------------------------------------------




 Dimension of arrays:
   k-points           NKPTS =      2   k-points in BZ     NKDIM =      2   number of bands    NBANDS=    874
   number of dos      NEDOS =    301   number of ions     NIONS =    246
   non local maximal  LDIM  =      6   non local SUM 2l+1 LMDIM =     18
   total plane-waves  NPLWV = ******
   max r-space proj   IRMAX =   8746   max aug-charges    IRDMAX=  24571
   dimension x,y,z NGX =    96 NGY =   84 NGZ =  280
   dimension x,y,z NGXF=   192 NGYF=  168 NGZF=  560
   support grid    NGXF=   192 NGYF=  168 NGZF=  560
   ions per type =              96  50 100
   NGX,Y,Z   is equivalent  to a cutoff of  15.74, 15.90, 15.45 a.u.
   NGXF,Y,Z  is equivalent  to a cutoff of  31.48, 31.80, 30.90 a.u.

 SYSTEM =  unknown system                          
 POSCAR =  Cu O  H                                 

 Startparameter for this run:
   NWRITE =      2    write-flag & timer
   PREC   = accura    normal or accurate (medium, high low for compatibility)
   ISTART =      0    job   : 0-new  1-cont  2-samecut
   ICHARG =      2    charge: 1-file 2-atom 10-const
   ISPIN  =      1    spin polarized calculation?
   LNONCOLLINEAR =      F non collinear calculations
   LSORBIT =      F    spin-orbit coupling
   INIWAV =      1    electr: 0-lowe 1-rand  2-diag
   LASPH  =      T    aspherical Exc in radial PAW
 Electronic Relaxation 1
   ENCUT  =  800.0 eV  58.80 Ry    7.67 a.u.  23.39 20.25 69.49*2*pi/ulx,y,z
   ENINI  =  800.0     initial cutoff
   ENAUG  = 1000.0 eV  augmentation charge cutoff
   NELM   =    160;   NELMIN=  2; NELMDL= -5     # of ELM steps 
   EDIFF  = 0.1E-06   stopping-criterion for ELM
   LREAL  =      T    real-space projection
   NLSPLINE    = F    spline interpolate recip. space projectors
   LCOMPAT=      F    compatible to vasp.4.4
   GGA_COMPAT  = T    GGA compatible to vasp.4.4-vasp.4.6
   LMAXPAW     = -100 max onsite density
   LMAXMIX     =    2 max onsite mixed and CHGCAR
   VOSKOWN=      0    Vosko Wilk Nusair interpolation
   ROPT   =   -0.00025  -0.00025  -0.00025
 Ionic relaxation
   EDIFFG = 0.1E-05   stopping-criterion for IOM
   NSW    =      0    number of steps for IOM
   NBLOCK =      1;   KBLOCK =      1    inner block; outer block 
   IBRION =     -1    ionic relax: 0-MD 1-quasi-New 2-CG
   NFREE  =      0    steps in history (QN), initial steepest desc. (CG)
   ISIF   =      2    stress and relaxation
   IWAVPR =     10    prediction:  0-non 1-charg 2-wave 3-comb
   ISYM   =      2    0-nonsym 1-usesym 2-fastsym
   LCORR  =      T    Harris-Foulkes like correction to forces

   POTIM  = 0.5000    time-step for ionic-motion
   TEIN   =    0.0    initial temperature
   TEBEG  =    0.0;   TEEND  =   0.0 temperature during run
   SMASS  =  -3.00    Nose mass-parameter (am)
   estimated Nose-frequenzy (Omega)   =  0.10E-29 period in steps = 0.13E+47 mass=  -0.235E-26a.u.
   SCALEE = 1.0000    scale energy and forces
   NPACO  =    256;   APACO  = 10.0  distance and # of slots for P.C.
   PSTRESS=    0.0 pullay stress

  Mass of Ions in am
   POMASS =  63.55 16.00  1.00
  Ionic Valenz
   ZVAL   =  11.00  6.00  1.00
  Atomic Wigner-Seitz radii
   RWIGS  =  -1.00 -1.00 -1.00
  virtual crystal weights 
   VCA    =   1.00  1.00  1.00
   NELECT =    1456.0000    total number of electrons
   NUPDOWN=      -1.0000    fix difference up-down

 DOS related values:
   EMIN   =  10.00;   EMAX   =-10.00  energy-range for DOS
   EFERMI =   0.00;   METHOD = LEGACY      
   ISMEAR =     0;   SIGMA  =   0.10  broadening in eV -4-tet -1-fermi 0-gaus

 Electronic relaxation 2 (details)
   IALGO  =     68    algorithm
   LDIAG  =      T    sub-space diagonalisation (order eigenvalues)
   LSUBROT=      F    optimize rotation matrix (better conditioning)
   TURBO    =      0    0=normal 1=particle mesh
   IRESTART =      0    0=no restart 2=restart with 2 vectors
   NREBOOT  =      0    no. of reboots
   NMIN     =      0    reboot dimension
   EREF     =   0.00    reference energy to select bands
   IMIX   =      4    mixing-type and parameters
     AMIX     =   0.40;   BMIX     =  1.00
     AMIX_MAG =   1.60;   BMIX_MAG =  1.00
     AMIN     =   0.10
     WC   =   100.;   INIMIX=   1;  MIXPRE=   1;  MAXMIX= -45

 Intra band minimization:
   WEIMIN = 0.0000     energy-eigenvalue tresh-hold
   EBREAK =  0.29E-10  absolut break condition
   DEPER  =   0.30     relativ break condition  

   TIME   =   0.40     timestep for ELM

  volume/ion in A,a.u.               =      10.91        73.61
  Fermi-wavevector in a.u.,A,eV,Ry     =   1.335295  2.523342 24.259360  1.783013
  Thomas-Fermi vector in A             =   2.464010
 
 Write flags
   LWAVE        =      T    write WAVECAR
   LDOWNSAMPLE  =      F    k-point downsampling of WAVECAR
   LCHARG       =      T    write CHGCAR
   LVTOT        =      F    write LOCPOT, total local potential
   LVHAR        =      T    write LOCPOT, Hartree potential only
   WRT_POTENTIAL=  hartree ionic  ! write potential to hdf5 file
   LELF         =      F    write electronic localiz. function (ELF)
   LORBIT       =      0    0 simple, 1 ext, 2 COOP (PROOUT), +10 PAW based schemes


 Dipole corrections
   LMONO      =      F    monopole corrections only (constant potential shift)
   LDIPOL     =      F    correct potential (dipole corrections)
   IDIPOL     =      0    1-x, 2-y, 3-z, 4-all directions 
   EPSILON    =  1.0000000 bulk dielectric constant
   LVACPOTAV  =      F  vacuum potentials using an averaging scheme for the charge density
   VACPOTFLAT =  0.1000000 required flatness to determine vacuum potential
 Exchange correlation treatment:
   METAGGA = R2SCAN    functional components
   XC_C    = 1    coefficients multiplying the functional components
   LIBXC   =     F    Libxc                    
   VOSKOWN =     0    Vosko Wilk Nusair interpolation
   LHFCALC =     F    Hartree Fock is set to
   LHFONE  =     F    Hartree Fock one center treatment
   AEXX    =    0.0000 exact exchange contribution

 Parameters of functionals:
   R2SCAN:
     No parameter
 
 Accuracy and mixing parameters for tau-dependent meta-GGA functionals:
   LMAXTAU = 6
   LMIXTAU = T
 
 Van der Waals corrections
   IVDW    =     0    specifies the selected vdW correction

 Linear response parameters
   LEPSILON=     F    determine dielectric tensor
   LRPA    =     F    only Hartree local field effects (RPA)
   LNABLA  =     F    use nabla operator in PAW spheres
   LVEL    =     F    velocity operator in full k-point grid
   CSHIFT  =0.1000    complex shift for real part using Kramers Kronig
   OMEGAMAX=  -1.0    maximum frequency
   DEG_THRESHOLD= 0.2000000E-02 threshold for treating states as degnerate
   RTIME   =   -0.100 relaxation time in fs
  (WPLASMAI=    0.000 imaginary part of plasma frequency in eV, 0.658/RTIME)
   DFIELD  = 0.0000000 0.0000000 0.0000000 field for delta impulse in time
 
  Optional k-point grid parameters
   LKPOINTS_OPT  =     F    use optional k-point grid
   KPOINTS_OPT_MODE=     1    mode for optional k-point grid
 
 Orbital magnetization related:
   ORBITALMAG=     F  switch on orbital magnetization
   LCHIMAG   =     F  perturbation theory with respect to B field
   DQ        =  0.001000  dq finite difference perturbation B field
   LLRAUG    =     F  two centre corrections for induced B field
   LBONE     =     F  B-component reconstruction in AE one-centre
   LVGVCALC  =     T  calculate vGv susceptibility
   LVGVAPPL  =     F  apply vGv susceptibility instead of pGv for G=0

 Random number generation:
   RANDOM_GENERATOR = DEFAULT
   PCG_SEED         = not used


--------------------------------------------------------------------------------------------------------


 Static calculation
 charge density and potential will be updated during run
 non-spin polarized calculation
 RMM-DIIS sequential band-by-band and
  variant of blocked Davidson during initial phase
 perform sub-space diagonalisation
    before iterative eigenvector-optimisation
 modified Broyden-mixing scheme, WC =      100.0
 initial mixing is a Kerker type mixing with AMIX =  0.4000 and BMIX =      1.0000
 Hartree-type preconditioning will be used
 using additional bands           146
 real space projection scheme for non local part
 use partial core corrections
 calculate Harris-corrections to forces 
   (improved forces if not selfconsistent)
 use gradient corrections 
 use of overlap-Matrix (Vanderbilt PP)
 Gauss-broadening in eV      SIGMA  =   0.10


--------------------------------------------------------------------------------------------------------


  energy-cutoff  :      800.00
  volume of cell :     2683.21
      direct lattice vectors                 reciprocal lattice vectors
    10.140377178  0.000000000  0.000000000     0.098615661  0.000000000  0.000000000
     0.000000000  8.781824240  0.000000000     0.000000000  0.113871557  0.000000000
     0.000000000  0.000000000 30.131127158     0.000000000  0.000000000  0.033188271

  length of vectors
    10.140377178  8.781824240 30.131127158     0.098615661  0.113871557  0.033188271


 
 k-points in units of 2pi/SCALE and weight: KPOINTS created by Atomic Simulation Env
   0.02465392  0.02846789  0.00000000       0.500
  -0.02465392  0.02846789  0.00000000       0.500
 
 k-points in reciprocal lattice and weights: KPOINTS created by Atomic Simulation Env
   0.25000000  0.25000000  0.00000000       0.500
  -0.25000000  0.25000000  0.00000000       0.500
 
 position of ions in fractional coordinates (direct lattice) 
   0.69058378  0.13474421  0.32414851
   0.94132495  0.13998800  0.32605153
   0.16992465  0.12157155  0.32977691
   0.43566723  0.12799049  0.32378543
   0.80877465  0.37807634  0.33006863
   0.05482528  0.38560781  0.32807535
   0.31152983  0.38180678  0.32134941
   0.56529554  0.39881577  0.32764755
   0.94685235  0.62780236  0.32939060
   0.17454578  0.63903237  0.32876765
   0.43538814  0.63555701  0.33082101
   0.68125277  0.62919273  0.31845374
   0.06173084  0.87708770  0.32806340
   0.30918278  0.88760715  0.33067598
   0.55437977  0.88101627  0.32578303
   0.81094025  0.88076005  0.32453383
   0.54804569  0.21158132  0.39002524
   0.81949614  0.20175990  0.39498356
   0.05514667  0.22063867  0.39400119
   0.30545708  0.20968764  0.39671267
   0.68240657  0.45853115  0.39532208
   0.94103797  0.46264419  0.39477448
   0.18882631  0.46712276  0.39693172
   0.43190701  0.44973799  0.39697486
   0.80694040  0.70736784  0.39631110
   0.05537999  0.70618243  0.39673922
   0.30823410  0.70342788  0.39387176
   0.56088545  0.71133967  0.39286283
   0.93499678  0.96814964  0.39348677
   0.17611672  0.96539395  0.39634096
   0.43538913  0.95441901  0.39870729
   0.68493014  0.94807750  0.39758221
   0.56249979  0.04166663  0.46565135
   0.81250035  0.04166663  0.46565135
   0.06250004  0.04166663  0.46565135
   0.31250021  0.04166663  0.46565135
   0.68750007  0.29166719  0.46565135
   0.93749964  0.29166719  0.46565135
   0.18749993  0.29166719  0.46565135
   0.43750049  0.29166719  0.46565135
   0.81250035  0.54166650  0.46565135
   0.06250004  0.54166650  0.46565135
   0.31250021  0.54166650  0.46565135
   0.56249979  0.54166650  0.46565135
   0.93749964  0.79166695  0.46565135
   0.18749993  0.79166695  0.46565135
   0.43750049  0.79166695  0.46565135
   0.68750007  0.79166695  0.46565135
   0.68750007  0.12500022  0.53434775
   0.93749964  0.12500022  0.53434775
   0.18749993  0.12500022  0.53434775
   0.43750049  0.12500022  0.53434775
   0.81250035  0.37499953  0.53434775
   0.06250004  0.37499953  0.53434775
   0.31250021  0.37499953  0.53434775
   0.56249979  0.37499953  0.53434775
   0.93749964  0.62499998  0.53434775
   0.18749993  0.62499998  0.53434775
   0.43750049  0.62499998  0.53434775
   0.68750007  0.62499998  0.53434775
   0.06250004  0.87500043  0.53434775
   0.31250021  0.87500043  0.53434775
   0.56249979  0.87500043  0.53434775
   0.81250035  0.87500043  0.53434775
   0.57392737  0.20869696  0.60409954
   0.81474681  0.19809552  0.60122543
   0.07051533  0.20641611  0.60336940
   0.30910093  0.19714810  0.60481640
   0.68335032  0.46034740  0.60307070
   0.94867477  0.44680580  0.60807217
   0.19595030  0.46687680  0.60581537
   0.43956748  0.44824514  0.60059154
   0.80803898  0.70329465  0.60163033
   0.06184809  0.71238843  0.60136482
   0.32668311  0.70556639  0.60162369
   0.56146334  0.71373553  0.60378093
   0.93008473  0.95617149  0.60446793
   0.19526788  0.96340006  0.60353866
   0.44126761  0.96354240  0.60266249
   0.69607273  0.95408764  0.60574568
   0.56241005  0.03002759  0.67001144
   0.82946126  0.03868581  0.68166716
   0.05723032  0.04325457  0.67130910
   0.31463524  0.02686560  0.67306476
   0.70638891  0.27953645  0.67189654
   0.95285410  0.28007393  0.67271297
   0.19224827  0.28875891  0.67200606
   0.44581478  0.28598500  0.66954681
   0.82110259  0.53392323  0.66947711
   0.07140563  0.53682354  0.67229812
   0.32024746  0.54825625  0.67139208
   0.56589512  0.53603783  0.67302494
   0.94306946  0.78943962  0.67040307
   0.19154317  0.78442700  0.67576961
   0.44571813  0.79174324  0.67542445
   0.68824560  0.79274076  0.67205252
   0.11089035  0.42778014  0.24224683
   0.80434483  0.47442990  0.21923309
   0.12511369  0.89919131  0.12703209
   0.14591666  0.32570681  0.84195987
   0.19485962  0.35907232  0.04209235
   0.34297541  0.25378782  0.91636134
   0.08837778  0.59918872  0.95877595
   0.42178707  0.47380247  0.21203190
   0.02875347  0.74110342  0.77750161
   0.79860442  0.90976542  0.77602142
   0.62861468  0.40080169  0.94147490
   0.58989325  0.10841813  0.11850071
   0.40438437  0.22021848  0.16369749
   0.44659581  0.48256716  0.77349579
   0.40406880  0.81583049  0.09588788
   0.00813269  0.54556888  0.14869440
   0.84892503  0.71411928  0.04092114
   0.82342203  0.91023343  0.11764711
   0.18815375  0.88674856  0.90264463
   0.70315629  0.85411753  0.96921034
   0.26125458  0.20216187  0.75326422
   0.55782442  0.19063465  0.77144807
   0.27485861  0.86135406  0.01481153
   0.47266289  0.70041484  0.98553233
   0.24975008  0.57362911  0.87857981
   0.55405336  0.27430861  0.02829921
   0.73468470  0.14111191  0.88011643
   0.89527045  0.52566185  0.82801084
   0.47410268  0.97275347  0.90395224
   0.44244015  0.74504793  0.18242066
   0.96899946  0.87786089  0.21716413
   0.14230536  0.12365426  0.98471590
   0.12207435  0.68006941  0.06449145
   0.72310328  0.18305194  0.22203252
   0.83044544  0.24275252  0.77797289
   0.69917222  0.76773912  0.21639217
   0.70340382  0.39696308  0.13113117
   0.96467319  0.16467991  0.18245915
   0.88510219  0.74612402  0.91363326
   0.89236326  0.42897579  0.92013153
   0.16123562  0.19453247  0.12418819
   0.50045377  0.60780196  0.89959462
   0.40768306  0.52170026  0.06835257
   0.26343300  0.99613472  0.20467572
   0.88780425  0.10358850  0.02141988
   0.51404301  0.90997836  0.80624266
   0.00614763  0.14337112  0.90549218
   0.28394506  0.73950353  0.79565560
   0.62434364  0.61347163  0.81704876
   0.77645238  0.39536318  0.04916909
   0.15465500  0.34623558  0.25710455
   0.17849731  0.47682006  0.22674923
   0.76156832  0.37425026  0.22662345
   0.88785060  0.49450090  0.23428695
   0.42843180  0.70821618  0.09627486
   0.20105169  0.84953989  0.11842405
   0.18909454  0.42086814  0.85075145
   0.18117078  0.29905290  0.81347438
   0.18342414  0.30333105  0.06881223
   0.18437973  0.28243107  0.01650267
   0.43362588  0.58705798  0.20654621
   0.36399829  0.15107681  0.91350051
   0.32759334  0.22225451  0.14567626
   0.02558376  0.52042604  0.94828182
   0.56474329  0.47024512  0.92782789
   0.42543191  0.47313063  0.24377847
   0.00757069  0.71304319  0.74680910
   0.81186724  0.01983403  0.77642631
   0.72183212  0.90128540  0.75568033
   0.61639522  0.82096610  0.97852297
   0.57910173  0.35803153  0.96546670
   0.31852267  0.91676852  0.03839584
   0.56373840  0.15699130  0.08878991
   0.51657447  0.13752382  0.14052578
   0.42376925  0.30170952  0.90741046
   0.41791739  0.31890868  0.17692534
   0.45325730  0.50453412  0.74228886
   0.45391803  0.37083070  0.77720624
   0.02874449  0.69277292  0.95485973
   0.46946577  0.86242104  0.11846553
   0.91737712  0.51767262  0.14371484
   0.82487464  0.60729068  0.03776692
   0.83151049  0.75765579  0.07046036
   0.74384708  0.97825460  0.12110134
   0.88186956  0.99002209  0.10178809
   0.27642759  0.89323355  0.91523294
   0.15311856  0.97854612  0.89164935
   0.03318762  0.61122266  0.12487651
   0.75327277  0.80114676  0.99149958
   0.33248467  0.16686055  0.73566448
   0.18539251  0.14923095  0.73787482
   0.97349436  0.82501765  0.78298432
   0.65294909  0.22817924  0.77340950
   0.56204517  0.08253524  0.77114938
   0.21894353  0.79365059  0.03370501
   0.39945457  0.77050164  0.99191112
   0.24190323  0.65344965  0.85776745
   0.50381459  0.35993774  0.04322009
   0.18750585  0.59914545  0.90248864
   0.47401787  0.68226713  0.95439178
   0.64098701  0.32112462  0.03352878
   0.70029742  0.22859146  0.89660104
   0.70271252  0.16380765  0.85028017
   0.97759776  0.47602296  0.83547157
   0.48891870  0.96471414  0.87241343
   0.38974586  0.83395315  0.19313283
   0.92314318  0.60092640  0.80495495
   0.53442391  0.76419544  0.19390579
   0.87569622  0.85056132  0.21661785
   0.01454374  0.81197936  0.23867444
   0.17645991  0.02482594  0.98744398
   0.12295598  0.58042155  0.05125132
   0.09354327  0.13548324  0.95665190
   0.03139804  0.70939133  0.05738418
   0.82808261  0.04501024  0.00394300
   0.80547793  0.14722909  0.20882890
   0.68249631  0.10672042  0.24101422
   0.87039169  0.33781478  0.78665826
   0.72099586  0.66472749  0.22141422
   0.68608691  0.28945580  0.13656774
   0.67471849  0.80996269  0.24508210
   0.85543662  0.21261642  0.74754256
   0.72118323  0.43008148  0.16228235
   0.99117615  0.24395615  0.20327451
   0.98583611  0.06332101  0.19776691
   0.55138482  0.92369305  0.91881395
   0.80673331  0.45882039  0.93204611
   0.10092524  0.24195087  0.14672700
   0.90276326  0.32852172  0.93284927
   0.87620015  0.69259869  0.88559913
   0.14126003  0.08160343  0.12736530
   0.40809725  0.58992982  0.89184516
   0.55465491  0.60994161  0.87272872
   0.11248398  0.87464515  0.15875709
   0.32864951  0.46306438  0.06720923
   0.30831398  0.08178893  0.18975526
   0.39512140  0.57618666  0.04037652
   0.27706760  0.01983870  0.23754438
   0.96677075  0.11011516  0.00318127
   0.80002448  0.80374986  0.91848539
   0.43609620  0.85782632  0.79350500
   0.58488850  0.84334755  0.80380332
   0.03866809  0.22342738  0.88621311
   0.92006735  0.12008097  0.89459315
   0.19189523  0.75796325  0.78485282
   0.31437194  0.63875225  0.78496566
   0.70406947  0.56723408  0.81540926
   0.56411117  0.55246836  0.79744113
   0.76146280  0.40295386  0.07942285
   0.83150457  0.30570755  0.04372223
 
 position of ions in cartesian coordinates  (Angst):
   7.00278000  1.18330000  9.76696000
   9.54539000  1.22935000  9.82430000
   1.72310000  1.06762000  9.93655000
   4.41783000  1.12399000  9.75602000
   8.20128000  3.32020000  9.94534000
   0.55594900  3.38634000  9.88528000
   3.15903000  3.35296000  9.68262000
   5.73231000  3.50233000  9.87239000
   9.60144000  5.51325000  9.92491000
   1.76996000  5.61187000  9.90614000
   4.41500000  5.58135000  9.96801000
   6.90816000  5.52546000  9.59537000
   0.62597400  7.70243000  9.88492000
   3.13523000  7.79481000  9.96364000
   5.62162000  7.73693000  9.81621000
   8.22324000  7.73468000  9.77857000
   5.55739000  1.85807000 11.75190000
   8.31000000  1.77182000 11.90130000
   0.55920800  1.93761000 11.87170000
   3.09745000  1.84144000 11.95340000
   6.91986000  4.02674000 11.91150000
   9.54248000  4.06286000 11.89500000
   1.91477000  4.10219000 11.96000000
   4.37970000  3.94952000 11.96130000
   8.18268000  6.21198000 11.94130000
   0.56157400  6.20157000 11.95420000
   3.12561000  6.17738000 11.86780000
[...]
      0.63377      0.36591     14.03060        -0.107868      0.089937     -0.153131
      3.16887      0.36591     14.03060        -0.087907     -0.006441     -0.062673
      6.97151      2.56137     14.03060        -0.041112     -0.090108     -0.382414
      9.50660      2.56137     14.03060        -0.037855      0.005904     -0.166256
      1.90132      2.56137     14.03060        -0.110019     -0.003821     -0.121357
      4.43642      2.56137     14.03060         0.054778     -0.123763     -0.131238
      8.23906      4.75682     14.03060        -0.010897     -0.080504     -0.201636
      0.63377      4.75682     14.03060        -0.030009     -0.034836     -0.004319
      3.16887      4.75682     14.03060         0.036820      0.039945     -0.039740
      5.70396      4.75682     14.03060        -0.024465      0.026476     -0.259691
      9.50660      6.95228     14.03060        -0.038836      0.076560     -0.199264
      1.90132      6.95228     14.03060         0.005001     -0.029656     -0.233594
      4.43642      6.95228     14.03060        -0.011410     -0.187589     -0.132520
      6.97151      6.95228     14.03060        -0.083757     -0.136392     -0.019911
      6.97151      1.09773     16.10050        -0.043629     -0.105566     -0.043424
      9.50660      1.09773     16.10050         0.144304     -0.021117      0.031860
      1.90132      1.09773     16.10050         0.032407      0.025390     -0.084729
      4.43642      1.09773     16.10050         0.024468      0.151996      0.076801
      8.23906      3.29318     16.10050         0.080604      0.101260      0.218791
      0.63377      3.29318     16.10050         0.030065      0.086815      0.225055
      3.16887      3.29318     16.10050        -0.109890     -0.079772      0.036325
      5.70396      3.29318     16.10050         0.083464     -0.073229     -0.189165
      9.50660      5.48864     16.10050         0.007622     -0.155833      0.100983
      1.90132      5.48864     16.10050         0.016548     -0.021712      0.099696
      4.43642      5.48864     16.10050         0.144413     -0.059838     -0.185017
      6.97151      5.48864     16.10050        -0.081144      0.007228     -0.097667
      0.63377      7.68410     16.10050        -0.007279      0.150528      0.066752
      3.16887      7.68410     16.10050         0.049397      0.048615      0.008899
      5.70396      7.68410     16.10050         0.070444      0.060337      0.102011
      8.23906      7.68410     16.10050        -0.023653      0.037978      0.016298
      5.81984      1.83274     18.20220        -0.389586     -0.222779     -0.110586
      8.26184      1.73964     18.11560         0.271196      0.577009      0.500596
      0.71505      1.81271     18.18020        -0.339283     -0.025923     -0.171946
      3.13440      1.73132     18.22380         0.661392      0.819047     -0.132701
      6.92943      4.04269     18.17120         0.440358     -0.219889      0.176407
      9.61992      3.92377     18.32190        -0.386740      0.323055     -0.957994
      1.98701      4.10003     18.25390        -0.175474     -0.429581     -0.431021
      4.45738      3.93641     18.09650        -0.021023      0.219870      0.580708
      8.19382      6.17621     18.12780         0.428013     -0.086748      0.370405
      0.62716      6.25607     18.11980         0.255469     -0.168897      0.457481
      3.31269      6.19616     18.12760        -0.808779      0.364747      0.484079
      5.69345      6.26790     18.19260         0.296151     -0.316086      0.085332
      9.43141      8.39693     18.21330         0.791556     -0.052011     -0.141763
      1.98009      8.46041     18.18530        -0.620628     -0.934747      0.121051
      4.47462      8.46166     18.15890         0.093693     -0.273758      0.097917
      7.05844      8.37863     18.25180        -0.493406      0.184871     -0.229624
      5.70305      0.26370     20.18820         0.340430      0.594527      0.299935
      8.41105      0.33973     20.53940        -0.881964     -0.242918     -0.701015
      0.58034      0.37985     20.22730         1.089577     -0.725364     -0.119733
      3.19052      0.23593     20.28020        -0.027492      0.170196     -0.428813
      7.16305      2.45484     20.24500        -0.397895      0.198559     -0.156589
      9.66230      2.45956     20.26960        -0.641407      0.525264      0.038579
      1.94947      2.53583     20.24830         0.364086      0.085634     -0.010053
      4.52073      2.51147     20.17420         0.007289      0.065186     -0.065862
      8.32629      4.68882     20.17210        -0.239011      0.218863      0.251577
      0.72408      4.71429     20.25710        -0.156195      0.260478      0.088273
      3.24743      4.81469     20.22980         0.161027     -0.357063     -0.057308
      5.73839      4.70739     20.27900         0.206571      0.051207     -0.438034
      9.56308      6.93272     20.20000        -0.111550     -0.310115     -0.073295
      1.94232      6.88870     20.36170        -0.067728      0.199626     -0.573369
      4.51975      6.95295     20.35130        -0.313050     -0.369497     -0.259002
      6.97907      6.96171     20.24970         0.436992     -0.410468     -0.022686
      1.12447      3.75669      7.29917        -1.773101     -0.448235      0.728840
      8.15636      4.16636      6.60574        -0.627977      0.105329      0.409137
      1.26870      7.89654      3.82762        -2.507801      1.085078      2.074749
      1.47965      2.86030     25.36920        -0.797420      0.176975     -0.434193
      1.97595      3.15331      1.26829        -0.102999     -0.178233     -1.996992
      3.47790      2.22872     27.61100        -0.575865      2.027950      0.032136
      0.89618      5.26197     28.88900        -1.355005      1.384593     -0.550979
      4.27708      4.16085      6.38876        -0.040169      0.890983      0.422280
      0.29157      6.50824     23.42700         0.692902     -1.329857     -0.969269
      8.09815      7.98940     23.38240        -0.891663      0.596168     -1.025164
      6.37439      3.51977     28.36770         0.153878     -0.372910     -0.533246
      5.98174      0.95211      3.57056        -0.784907      0.660057     -0.821041
      4.10061      1.93392      4.93239         0.687877     -0.811155      1.107271
      4.52865      4.23782     23.30630        -0.562343     -0.839309      0.366094
      4.09741      7.16448      2.88921         1.821897      1.354949      1.895035
      0.08247      4.79109      4.48033        -0.134004     -0.513349      0.867288
      8.60842      6.27127      1.23300         0.406962      0.460536     -0.130391
      8.34981      7.99351      3.54484         0.327558      3.083287     -1.076617
      1.90795      7.78727     27.19770         0.466682     -2.063117      0.408225
      7.13027      7.50071     29.20340        -0.045714      0.578142     -0.169652
      2.64922      1.77535     22.69670        -2.403234     -0.238572     -0.231278
      5.65655      1.67412     23.24460         1.622813      2.245125     -0.491321
      2.78717      7.56426      0.44629        -0.524560      0.316252      0.607743
      4.79298      6.15092     29.69520         0.270437      0.266069      0.963572
      2.53256      5.03751     26.47260        -0.339023     -0.945901      0.592876
      5.61831      2.40893      0.85269        -1.049976      1.240570      1.004677
      7.44998      1.23922     26.51890        -0.383558      0.605410     -0.676394
      9.07838      4.61627     24.94890         0.065222      0.640270     -1.597454
      4.80758      8.54255     27.23710         0.815385     -0.681454      0.928247
      4.48651      6.54288      5.49654         0.990764      1.221908      1.535709
      9.82602      7.70922      6.54340         0.473417     -0.207949      0.752319
      1.44303      1.08591     29.67060        -1.353764      2.119347     -0.374880
      1.23788      5.97225      1.94320        -0.602576     -0.038631      0.104020
      7.33254      1.60753      6.69009        -0.670092      0.213422      0.561020
      8.42103      2.13181     23.44120        -0.543322     -1.113328     -0.699402
      7.08987      6.74215      6.52014        -0.459049      2.117971      0.047894
      7.13278      3.48606      3.95113         0.278436      0.321738      2.427613
      9.78215      1.44619      5.49770        -0.162782     -1.079609      1.655522
      8.97527      6.55233     27.52880        -1.430621      0.971307     -0.434762
      9.04890      3.76719     27.72460        -0.058404     -0.324650      0.468390
      1.63499      1.70835      3.74193        -0.454206      0.289464      1.167619
      5.07479      5.33761     27.10580         0.380300      0.030346     -0.049055
      4.13406      4.58148      2.05954         0.707785      0.640835     -0.526643
      2.67131      8.74788      6.16711         0.507289      0.296731      2.530127
      9.00267      0.90970      0.64541         0.191572      0.531955      0.253579
      5.21259      7.99127     24.29300        -1.904552      1.472748     -0.794245
      0.06234      1.25906     27.28350         0.855133      0.153692      0.136012
      2.87931      6.49419     23.97400        -0.068683     -0.465924     -0.757112
      6.33108      5.38740     24.61860        -3.071942      1.360893     -0.367416
      7.87352      3.47201      1.48152         1.165081     -0.087464     -2.988542
      1.56826      3.04058      7.74685         0.375100     -0.723184      0.210941
      1.81003      4.18735      6.83221         1.347284      0.975698     -1.286643
      7.72259      3.28660      6.82842         0.977153      0.664547      0.212596
      9.00314      4.34262      7.05933        -0.438097     -0.781594     -0.363718
      4.34446      6.21943      2.90087        -0.356801      0.029456     -0.181535
      2.03874      7.46051      3.56825         2.423184     -1.347792     -0.895749
      1.91749      3.69599     25.63410         0.330350     -0.042455      0.520689
      1.83714      2.62623     24.51090         0.193953     -0.182244     -0.077900
      1.85999      2.66380      2.07339        -0.473279     -0.926132      0.830867
      1.86968      2.48026      0.49724         0.229740      0.973261      1.454569
      4.39713      5.15544      6.22347        -0.429641     -0.588317     -0.859223
      3.69108      1.32673     27.52480         0.567024     -2.117520      0.040409
      3.32192      1.95180      4.38939        -1.583212      0.332232     -1.182702
      0.25943      4.57029     28.57280         0.198837      0.400823      0.170084
      5.72671      4.12961     27.95650         0.279233      0.445722     -0.211661
      4.31404      4.15495      7.34532         0.124934     -0.526899      0.556863
      0.07677      6.26182     22.50220         0.167620      0.158896      0.338939
      8.23264      0.17418     23.39460         0.080639     -0.231700      0.558919
      7.31965      7.91493     22.76950         0.905888     -0.241634      0.692510
      6.25048      7.20958     29.48400        -0.791883     -0.201046      0.023331
      5.87231      3.14417     29.09060        -0.047933     -0.567391      0.933373
      3.22994      8.05090      1.15691         0.361896      0.038291     -0.149160
      5.71652      1.37867      2.67534         0.481747     -0.899824      1.580340
      5.23826      1.20771      4.23420         1.097221     -0.000701     -1.339488
      4.29718      2.64956     27.34130         0.144321      0.181472      0.046110
      4.23784      2.80060      5.33096         0.031078      0.584090      0.248862
      4.59620      4.43073     22.36600         0.022515     -0.198242     -0.519875
      4.60290      3.25657     23.41810        -0.008495      0.494334     -0.257674
      0.29148      6.08381     28.77100         1.380355     -1.691923      0.068633
      4.76056      7.57363      3.56950        -1.792914     -0.960007     -2.039884
      9.30255      4.54611      4.33029         0.120737      0.071335     -0.160611
      8.36454      5.33312      1.13796        -0.127896      0.036207      0.656978
      8.43183      6.65360      2.12305        -0.390665     -0.399572     -0.401800
      7.54289      8.59086      3.64892         0.633994     -1.113817     -0.183154
      8.94249      8.69420      3.06699        -1.102866     -2.057615      1.068007
      2.80308      7.84422     27.57700        -0.388111      0.712291     -0.519023
      1.55268      8.59342     26.86640        -0.026276      1.324742      0.073679
      0.33653      5.36765      3.76267         0.217731      0.356072     -0.642431
      7.63847      7.03553     29.87500         0.851750     -0.261043      0.398683
      3.37152      1.46534     22.16640         1.358185     -0.363722     -0.227251
      1.87995      1.31052     22.23300         0.937190      0.626629      1.004349
      9.87160      7.24516     23.59220        -1.153801      1.243704      0.311003
      6.62115      2.00383     23.30370        -1.549350     -0.636198     -0.067369
      5.69935      0.72481     23.23560        -0.315316     -1.228483      0.687284
      2.22017      6.96970      1.01557        -0.016897     -0.084039     -0.604165
      4.05062      6.76641     29.88740        -0.196467     -0.098875      0.046634
      2.45299      5.73848     25.84550        -0.063422      1.325820     -0.768548
      5.10887      3.16091      1.30227         0.055497     -1.070701     -0.730748
      1.90138      5.26159     27.19300         0.128030     -0.014431      0.384619
      4.80672      5.99155     28.75690        -0.032491     -0.259853     -0.850006
      6.49985      2.82006      1.01026         0.420613     -0.294106     -0.235087
      7.10128      2.00745     27.01560         0.093459     -0.244564      0.294965
      7.12577      1.43853     25.61990         0.306986     -0.333332      0.542326
      9.91321      4.18035     25.17370         0.123212     -0.277852      0.429538
      4.95782      8.47195     26.28680         0.188020     -0.247856     -0.085611
      3.95217      7.32363      5.81931         0.272219     -0.750800     -0.437365
      9.36102      5.27723     24.25420        -0.075765     -0.671573      1.052054
      5.41926      6.71103      5.84260        -1.057393     -0.067334     -0.703289
      8.87989      7.46948      6.52694         0.166884     -0.380180     -0.225824
      0.14748      7.13066      7.19153        -0.620684      0.517212     -0.676467
      1.78937      0.21802     29.75280         0.718813     -1.741492      0.056302
      1.24682      5.09716      1.54426         0.483953     -0.733082     -0.346460
      0.94856      1.18979     28.82500         0.648114     -0.383431      0.169619
      0.31839      6.22975      1.72905        -0.031612      0.313795     -0.126959
      8.39707      0.39527      0.11881        -0.668770     -0.392107     -0.257862
      8.16785      1.29294      6.29225         0.166221     -0.238687     -0.252266
      6.92077      0.93720      7.26203         0.379400      0.180647     -0.481494
      8.82610      2.96663     23.70290         0.305245      0.509830      0.219083
      7.31117      5.83752      6.67146         0.530516     -1.906918      0.161484
      6.95718      2.54195      4.11494        -0.292576     -0.327786     -0.621487
      6.84190      7.11295      7.38460         0.040662     -0.255753     -0.044977
      8.67445      1.86716     22.52430         0.173848      0.858183      0.517802
      7.31307      3.77690      4.88975        -0.089809      0.060514     -1.578240
     10.05090      2.14238      6.12489         0.017694     -0.225510     -0.232517
      9.99675      0.55607      5.95894        -0.099081      1.409925     -0.853061
      5.59125      8.11171     27.68490        -1.151218      0.852343     -0.864009
      8.18058      4.02928     28.08360        -0.000132      0.090962     -0.082929
      1.02342      2.12477      4.42105         0.885229     -0.752251     -1.471456
      9.15436      2.88502     28.10780         0.122312     -0.062591     -0.224363
      8.88500      6.08228     26.68410         0.052511      0.012577      0.350267
      1.43243      0.71663      3.83766         0.251921      0.776168     -0.398708
      4.13826      5.18066     26.87230        -0.219733      0.038878     -0.300192
      5.62441      5.35640     26.29630        -0.384285      0.115144     -0.010630
      1.14063      7.68098      4.78353         0.065141      0.177636     -1.148710
      3.33263      4.06655      2.02509        -0.937671     -0.831042      0.079767
      3.12642      0.71826      5.71754         0.048043     -0.095750      0.180836
      4.00668      5.05997      1.21659         0.664817      0.077597      0.055143
      2.80957      0.17422      7.15748        -0.298316     -0.444474     -2.157583
      9.80342      0.96701      0.09586         0.331834     -0.048775      0.416617
      8.11255      7.05839     27.67500         1.382007     -0.911955      0.095424
      4.42218      7.53328     23.90920         0.399614      0.109812      0.713352
      5.93099      7.40613     24.21950         1.394821     -1.763866      0.251330
      0.39211      1.96210     26.70260         0.226128     -0.025018     -0.098049
      9.32983      1.05453     26.95510        -0.951860     -0.197987     -0.219309
      1.94589      6.65630     23.64850         1.001041     -0.503712      0.422333
      3.18785      5.60941     23.65190        -0.530365      0.846839      0.364662
      7.13953      4.98135     24.56920         3.441684     -1.565507      0.178180
      5.72030      4.85168     24.02780         0.347334      0.624234      0.713100
      7.72152      3.53867      2.39310        -0.297049      0.117944      2.628497
      8.43177      2.68467      1.31740        -0.050788      0.099589     -0.010223
 -----------------------------------------------------------------------------------
    total drift:                               -0.010492     -0.004615     -0.039004


--------------------------------------------------------------------------------------------------------



  FREE ENERGIE OF THE ION-ELECTRON SYSTEM (eV)
  ---------------------------------------------------
  free  energy   TOTEN  =     -1808.12838029 eV

  energy  without entropy=    -1807.88307316  energy(sigma->0) =    -1808.00572673
 


--------------------------------------------------------------------------------------------------------


    POTLOK:  cpu time     11.9645: real time     11.9886


--------------------------------------------------------------------------------------------------------


 writing wavefunctions
     LOOP+:  cpu time   1637.1830: real time   1640.6723
    4ORBIT:  cpu time      0.0000: real time      0.0000

 total amount of memory used by VASP MPI-rank0  3314083. kBytes
=======================================================================

   base      :      30000. kBytes
   nonlr-proj:     189004. kBytes
   fftplans  :     312780. kBytes
   grid      :     814785. kBytes
   one-center:       3825. kBytes
   wavefun   :    1963689. kBytes
 
  
  
 General timing and accounting informations for this job:
 ========================================================
  
                  Total CPU time used (sec):     1705.218
                            User time (sec):     1671.568
                          System time (sec):       33.650
                         Elapsed time (sec):     1709.375
  
                   Maximum memory used (kb):     5024728.
                   Average memory used (kb):          N/A
  
                          Minor page faults:      7891882
                          Major page faults:         3851
                 Voluntary context switches:        39236
