LAMMPS (28 Mar 2023 - Development)
KOKKOS mode is enabled (src/KOKKOS/kokkos.cpp:107)
  will use up to 1 GPU(s) per node
  using 1 OpenMP thread(s) per MPI task
package kokkos
# LAMMPS input script

# == SETUP ==
units metal #ps A K  pressure in bars
atom_style atomic

atom_modify map yes
newton on

timer timeout 23:55:00
New timer settings: style=normal  mode=nosync  timeout=23:55:00

# == VARIABLES ==
variable    temp_water equal 330  # Temperature of water system
variable    temp_Cu_mobile equal 310 # Temperatureof the Cu atom (not fixed). 310 K ensures a temperature of 330 K in the outermost Cu atoms.
variable    seed1 equal 256982574
variable    seed2 equal 1008705
variable    stride equal 1000
variable    nsteps equal 2000000 # 1000 ps
variable    tstep equal 0.0005 # 0.5fs

# == DATA ==
boundary p p p #full
read_data Cu_H2O_m15.data
Reading data file ...
  orthogonal box = (0 0 0) to (10.140377 8.7818242 30.131127)
  1 by 1 by 1 MPI processor grid
  reading atoms ...
  246 atoms
  reading velocities ...
  246 velocities
  read_data CPU = 0.077 seconds
mass		1 63.55   # Cu
mass		2 2.0016  # H
mass 		3 15.9994 # O

# == Define GROUPS ==
group H2O type 2 3
150 atoms in group H2O

# == DEFINE FIX Cu layers ==
variable z_fix_bottom equal 13.5 # A
variable z_fix_up equal 16.5# # A
region fixedlayer block  INF INF INF INF ${z_fix_bottom} ${z_fix_up} #
region fixedlayer block  INF INF INF INF 13.5 ${z_fix_up} 
region fixedlayer block  INF INF INF INF 13.5 16.5 

group Cuall type 1
96 atoms in group Cuall
group fixedCu region fixedlayer
32 atoms in group fixedCu
group mobileCu subtract Cuall fixedCu
64 atoms in group mobileCu

# == Fix layers in the middle of the slab ==
fix fissoCubott fixedCu setforce 0 0 0
velocity fixedCu set 0 0 0

# == Define surface layers ==

variable z_surface_inf_low equal 9.0 # A
variable z_surface_inf_high equal 10.6 # A
region surface_inf block  INF INF INF INF ${z_surface_inf_low} ${z_surface_inf_high}
region surface_inf block  INF INF INF INF 9 ${z_surface_inf_high}
region surface_inf block  INF INF INF INF 9 10.6
group surf_inf_Cu region surface_inf
16 atoms in group surf_inf_Cu

variable z_surface_sup_low equal 19.8 # A
variable z_surface_sup_high equal 21.0 # A
region surface_sup block  INF INF INF INF ${z_surface_sup_low} ${z_surface_sup_high}
region surface_sup block  INF INF INF INF 19.8 ${z_surface_sup_high}
region surface_sup block  INF INF INF INF 19.8 21
group surf_sup_Cu region surface_sup
16 atoms in group surf_sup_Cu

# == Define Pair Style ==

pair_style mace no_domain_decomposition
pair_coeff * * Franken_Cu_H2O_m15_RF_1024-lammps.pt Cu H O

# == Define NVT thermostat ==

velocity mobileCu create ${temp_Cu_mobile} ${seed1} mom yes rot yes
velocity mobileCu create 310 ${seed1} mom yes rot yes
velocity mobileCu create 310 256982574 mom yes rot yes
fix NVT_Cu mobileCu nvt temp ${temp_Cu_mobile} ${temp_Cu_mobile} $(100.0*dt)
fix NVT_Cu mobileCu nvt temp 310 ${temp_Cu_mobile} $(100.0*dt)
fix NVT_Cu mobileCu nvt temp 310 310 $(100.0*dt)
fix NVT_Cu mobileCu nvt temp 310 310 0.10000000000000000555

velocity  H2O create ${temp_water} ${seed2}
velocity  H2O create 330 ${seed2}
velocity  H2O create 330 1008705
fix NVT_H2O H2O nvt temp ${temp_water} ${temp_water} $(100.0*dt)
fix NVT_H2O H2O nvt temp 330 ${temp_water} $(100.0*dt)
fix NVT_H2O H2O nvt temp 330 330 $(100.0*dt)
fix NVT_H2O H2O nvt temp 330 330 0.10000000000000000555

# == Compute and Visualization ==

thermo          ${stride}
thermo          1000
thermo_style    custom step pe ke etotal temp press vol
thermo_modify	flush yes
fix 		thermo_print all print ${stride} "$(step) $(pe) $(ke) $(etotal) $(temp) $(press) $(vol)" append thermo.out screen no title "#step pe ke etotal temp press vol"
fix 		thermo_print all print 1000 "$(step) $(pe) $(ke) $(etotal) $(temp) $(press) $(vol)" append thermo.out screen no title "#step pe ke etotal temp press vol"

compute Tmobile mobileCu temp
compute Tsurface_inf surf_inf_Cu temp
compute Tsurface_sup surf_sup_Cu temp
compute Twater H2O temp
compute Tall all temp
compute Press all pressure Tall

fix myat1 mobileCu ave/time 1 1 100 c_Tmobile file temperature_mobile.dat
fix myat2 surf_inf_Cu ave/time 1 1 100 c_Tsurface_inf file temperature_surf_inf.dat
fix myat3 surf_sup_Cu ave/time 1 1 100 c_Tsurface_sup file temperature_surf_sup.dat
fix myat4 H2O ave/time 1 1 100 c_Twater file temperature_water.dat
fix myat5 all ave/time 1 1 100 c_Press[3]  file pressure_all.dat

dump		viewNVT all custom ${stride} Cu_H2O_NVT_m15.dump id type element x y z fx fy fz
dump		viewNVT all custom 1000 Cu_H2O_NVT_m15.dump id type element x y z fx fy fz
dump_modify	viewNVT sort id append yes element Cu H O

# == RUN  NVT ==

timestep ${tstep}
timestep 0.0005
run		${nsteps}
run		2000000
Generated 0 of 3 mixed pair_coeff terms from geometric mixing rule
Neighbor list info ...
  update: every = 1 steps, delay = 0 steps, check = yes
  max neighbors/atom: 2000, page size: 100000
  master list distance cutoff = 14
  ghost atom cutoff = 14
  binsize = 14, bins = 1 1 3
  1 neighbor lists, perpetual/occasional/extra = 1 0 0
  (1) pair mace/kk, perpetual
      attributes: full, newton on, kokkos_device
      pair build: full/bin/kk/device
      stencil: full/bin/3d
      bin: kk/device
Per MPI rank memory allocation (min/avg/max) = 4.832 | 4.832 | 4.832 Mbytes
   Step         PotEng         KinEng         TotEng          Temp          Press          Volume    
         0  -1810.9134      8.880172      -1802.0333      280.40816      3534.9742      2683.2073    
      1000  -1811.6758      8.6288989     -1803.0469      272.47374      3434.9487      2683.2073    
      2000  -1812.2882      8.5565075     -1803.7317      270.18785      3406.1315      2683.2073    
      3000  -1811.1313      8.5026204     -1802.6287      268.48626      3384.6804      2683.2073    
      4000  -1810.9199      8.8836177     -1802.0363      280.51697      3536.3458      2683.2073    
      5000  -1809.6117      8.6180605     -1800.9937      272.1315       3430.6342      2683.2073    
      6000  -1812.3824      8.0904882     -1804.2919      255.47241      3220.6208      2683.2073    
      7000  -1810.5887      7.9600282     -1802.6287      251.35289      3168.688       2683.2073    
      8000  -1810.6386      8.3840591     -1802.2545      264.74247      3337.4841      2683.2073    
      9000  -1811.0748      7.785618      -1803.2892      245.84556      3099.2596      2683.2073    
     10000  -1812.0679      8.3164678     -1803.7515      262.60814      3310.5777      2683.2073    
     11000  -1811.0711      8.4710099     -1802.6001      267.4881       3372.097       2683.2073    
     12000  -1811.9198      8.8933794     -1803.0264      280.82521      3540.2317      2683.2073    
     13000  -1811.1987      8.2533002     -1802.9454      260.61351      3285.4322      2683.2073    
     14000  -1810.294       7.6551515     -1802.6388      241.72583      3047.3242      2683.2073    
     15000  -1810.1029      9.214342      -1800.8886      290.96021      3667.9989      2683.2073    
     16000  -1810.2242      8.7548368     -1801.4694      276.45047      3485.0814      2683.2073    
     17000  -1810.957       8.8193479     -1802.1377      278.48753      3510.7616      2683.2073    
     18000  -1811.2967      9.2500936     -1802.0466      292.08914      3682.2307      2683.2073    
     19000  -1811.375       9.0932927     -1802.2817      287.13785      3619.8122      2683.2073    
     20000  -1811.8317      8.0023055     -1803.8294      252.68788      3185.5175      2683.2073    
     21000  -1811.5339      8.5491378     -1802.9847      269.95513      3403.1977      2683.2073    
     22000  -1811.2688      8.9517118     -1802.3171      282.66717      3563.4524      2683.2073    
     23000  -1810.7473      9.6998599     -1801.0474      306.29136      3861.2714      2683.2073    
     24000  -1811.39        8.7987201     -1802.5913      277.83617      3502.5502      2683.2073    
     25000  -1812.1957      9.0054996     -1803.1902      284.36562      3584.864       2683.2073    
     26000  -1811.0976      8.549508      -1802.5481      269.96683      3403.3451      2683.2073    
     27000  -1810.8724      9.4750101     -1801.3974      299.1913       3771.7644      2683.2073    
     28000  -1811.66        9.491016      -1802.169       299.69672      3778.1359      2683.2073    
     29000  -1811.6525      8.476675      -1803.1758      267.66699      3374.3521      2683.2073    
     30000  -1811.5611      8.41937       -1803.1418      265.85747      3351.5404      2683.2073    
     31000  -1811.1131      8.654397      -1802.4587      273.27889      3445.0988      2683.2073    
     32000  -1811.1877      8.2606036     -1802.9271      260.84412      3288.3395      2683.2073    
     33000  -1811.5515      8.3876076     -1803.1639      264.85451      3338.8966      2683.2073    
     34000  -1811.4299      8.6802724     -1802.7496      274.09596      3455.3992      2683.2073    
     35000  -1809.8028      8.5004301     -1801.3024      268.4171       3383.8085      2683.2073    
     36000  -1811.4603      8.7311467     -1802.7292      275.70241      3475.651       2683.2073    
     37000  -1811.4967      8.0991752     -1803.3976      255.74672      3224.0789      2683.2073    
     38000  -1810.7382      9.1851684     -1801.5531      290.039        3656.3856      2683.2073    
     39000  -1809.9522      9.4795118     -1800.4727      299.33345      3773.5564      2683.2073    
     40000  -1811.5201      9.5211674     -1801.999       300.6488       3790.1384      2683.2073    
     41000  -1811.477       8.6239271     -1802.853       272.31675      3432.9695      2683.2073    
     42000  -1811.062       8.4697046     -1802.5923      267.44688      3371.5774      2683.2073    
     43000  -1811.005       8.8602427     -1802.1448      279.77886      3527.0408      2683.2073    
     44000  -1812.0589      8.8622166     -1803.1967      279.84119      3527.8266      2683.2073    
     45000  -1811.1716      8.7689508     -1802.4026      276.89615      3490.6998      2683.2073    
     46000  -1811.507       9.9187423     -1801.5882      313.20298      3948.4031      2683.2073    
     47000  -1810.8379      9.2482701     -1801.5897      292.03156      3681.5048      2683.2073    
     48000  -1811.2362      8.140862      -1803.0953      257.06306      3240.6734      2683.2073    
     49000  -1810.826       8.3863409     -1802.4396      264.81452      3338.3924      2683.2073    
     50000  -1810.6254      8.8843365     -1801.741       280.53967      3536.632       2683.2073    
     51000  -1810.7211      9.2405535     -1801.4805      291.78789      3678.433       2683.2073    
     52000  -1812.3864      8.800229      -1803.5862      277.88381      3503.1509      2683.2073    
     53000  -1811.5553      8.133635      -1803.4216      256.83485      3237.7965      2683.2073    
     54000  -1810.9         8.2124324     -1802.6876      259.32303      3269.1638      2683.2073    
     55000  -1810.3491      9.3791812     -1800.9699      296.16532      3733.6173      2683.2073    
     56000  -1811.4434      8.2286978     -1803.2147      259.83664      3275.6386      2683.2073    
     57000  -1811.0888      8.78071       -1802.3081      277.26746      3495.3808      2683.2073    
     58000  -1812.2536      8.5873417     -1803.6662      271.1615       3418.4058      2683.2073    
     59000  -1810.9422      9.3191382     -1801.6231      294.26935      3709.7156      2683.2073    
     60000  -1811.4435      9.2705241     -1802.173       292.73427      3690.3636      2683.2073    
     61000  -1810.5449      8.0938036     -1802.4511      255.5771       3221.9406      2683.2073    
     62000  -1809.9096      8.9330383     -1800.9766      282.07752      3556.0189      2683.2073    
     63000  -1811.8442      8.9134116     -1802.9308      281.45777      3548.206       2683.2073    
     64000  -1811.4077      9.4945199     -1801.9132      299.80736      3779.5307      2683.2073    
     65000  -1810.57        8.8868783     -1801.6831      280.61993      3537.6438      2683.2073    
     66000  -1811.7331      9.8297734     -1801.9034      310.39362      3912.9868      2683.2073    
     67000  -1810.9125      8.0444784     -1802.8681      254.01957      3202.3055      2683.2073    
     68000  -1810.9855      7.8833154     -1803.1022      248.93054      3138.1505      2683.2073    
     69000  -1811.6512      9.3510906     -1802.3001      295.27831      3722.4351      2683.2073    
     70000  -1811.3504      8.6826023     -1802.6678      274.16953      3456.3267      2683.2073    
     71000  -1810.6959      9.3978836     -1801.298       296.75588      3741.0622      2683.2073    
     72000  -1811.4592      8.7639479     -1802.6952      276.73817      3488.7083      2683.2073    
     73000  -1811.8101      8.6236243     -1803.1865      272.30719      3432.849       2683.2073    
     74000  -1812.4252      7.9602382     -1804.4649      251.35952      3168.7716      2683.2073    
     75000  -1811.9867      9.0470921     -1802.9396      285.67898      3601.4209      2683.2073    
     76000  -1811.8569      9.635947      -1802.221       304.27318      3835.8293      2683.2073    
     77000  -1810.5672      9.3082857     -1801.2589      293.92666      3705.3956      2683.2073    
     78000  -1810.3533      8.915738      -1801.4376      281.53123      3549.1321      2683.2073    
     79000  -1811.0499      8.8484754     -1802.2014      279.40728      3522.3566      2683.2073    
     80000  -1811.1184      9.3149689     -1801.8034      294.1377       3708.0559      2683.2073    
     81000  -1812.389       7.7005184     -1804.6885      243.15838      3065.3836      2683.2073    
     82000  -1810.5059      9.3341148     -1801.1718      294.74226      3715.6774      2683.2073    
     83000  -1810.499       9.1148477     -1801.3841      287.81849      3628.3927      2683.2073    
     84000  -1811.8061      8.3878726     -1803.4182      264.86288      3339.0021      2683.2073    
     85000  -1811.7403      8.7557805     -1802.9845      276.48027      3485.4571      2683.2073    
     86000  -1810.7947      8.776469      -1802.0183      277.13355      3493.6926      2683.2073    
     87000  -1811.1108      8.2445479     -1802.8663      260.33714      3281.9482      2683.2073    
     88000  -1810.2628      8.7538762     -1801.509       276.42014      3484.699       2683.2073    
     89000  -1809.9117      8.4826373     -1801.4291      267.85526      3376.7256      2683.2073    
     90000  -1811.1127      8.6336986     -1802.479       272.6253       3436.8593      2683.2073    
     91000  -1811.44        9.0362816     -1802.4037      285.33762      3597.1175      2683.2073    
     92000  -1811.2459      9.1118528     -1802.134       287.72392      3627.2005      2683.2073    
     93000  -1811.5411      8.3847913     -1803.1563      264.76559      3337.7756      2683.2073    
     94000  -1811.0493      9.2300776     -1801.8192      291.45709      3674.2629      2683.2073    
     95000  -1811.6599      8.5373686     -1803.1225      269.5835       3398.5128      2683.2073    
     96000  -1811.4057      8.2972678     -1803.1085      262.00187      3302.9346      2683.2073    
     97000  -1811.4351      9.1693513     -1802.2657      289.53954      3650.0892      2683.2073    
     98000  -1811.0415      9.0219863     -1802.0195      284.88622      3591.4269      2683.2073    
     99000  -1812.1556      8.2501008     -1803.9055      260.51248      3284.1586      2683.2073    
    100000  -1812.0777      8.8469148     -1803.2308      279.358        3521.7353      2683.2073    
    101000  -1811.8524      8.4623328     -1803.3901      267.2141       3368.6429      2683.2073    
    102000  -1811.2698      9.2439649     -1802.0258      291.89561      3679.7911      2683.2073    
    103000  -1812.2256      8.3809364     -1803.8447      264.64386      3336.241       2683.2073    
    104000  -1811.396       9.383906      -1802.0121      296.31451      3735.4981      2683.2073    
    105000  -1811.0737      9.7479794     -1801.3258      307.81082      3880.4266      2683.2073    
    106000  -1810.7148      9.0340634     -1801.6808      285.26758      3596.2345      2683.2073    
    107000  -1810.9033      9.284305      -1801.619       293.16942      3695.8494      2683.2073    
    108000  -1811.5698      9.2896711     -1802.2802      293.33887      3697.9856      2683.2073    
    109000  -1811.5928      9.1588792     -1802.4339      289.20887      3645.9205      2683.2073    
    110000  -1812.0796      9.0266776     -1803.0529      285.03436      3593.2944      2683.2073    
    111000  -1810.7595      7.9146197     -1802.8449      249.91903      3150.612       2683.2073    
    112000  -1811.0216      8.6079953     -1802.4136      271.81367      3426.6275      2683.2073    
    113000  -1811.7899      8.5095686     -1803.2803      268.70566      3387.4463      2683.2073    
    114000  -1809.7569      9.1668158     -1800.5901      289.45948      3649.0799      2683.2073    
    115000  -1810.6814      9.0931666     -1801.5883      287.13387      3619.762       2683.2073    
    116000  -1811.2629      8.9035859     -1802.3593      281.1475       3544.2947      2683.2073    
    117000  -1810.1266      8.8341213     -1801.2925      278.95403      3516.6426      2683.2073    
    118000  -1810.9721      9.776997      -1801.1951      308.72711      3891.9778      2683.2073    
    119000  -1811.7906      9.0113716     -1802.7793      284.55104      3587.2015      2683.2073    
    120000  -1811.1829      9.9523958     -1801.2305      314.26565      3961.7996      2683.2073    
    121000  -1811.2987      8.6630372     -1802.6356      273.55172      3448.5383      2683.2073    
    122000  -1810.8511      8.4663666     -1802.3847      267.34148      3370.2486      2683.2073    
    123000  -1810.3663      9.2668256     -1801.0995      292.61748      3688.8913      2683.2073    
    124000  -1812.1419      8.722209      -1803.4197      275.42019      3472.0931      2683.2073    
    125000  -1811.9053      9.1810583     -1802.7243      289.90922      3654.7495      2683.2073    
    126000  -1812.7851      8.8201919     -1803.9649      278.51418      3511.0976      2683.2073    
    127000  -1812.0065      8.6352545     -1803.3712      272.67443      3437.4787      2683.2073    
    128000  -1811.0928      9.5384498     -1801.5543      301.19453      3797.0181      2683.2073    
    129000  -1810.9721      9.3698917     -1801.6022      295.87199      3729.9194      2683.2073    
    130000  -1812.324       9.0423478     -1803.2817      285.52917      3599.5323      2683.2073    
    131000  -1811.4979      8.2432997     -1803.2546      260.29772      3281.4513      2683.2073    
    132000  -1811.3256      8.5736081     -1802.7519      270.72783      3412.9388      2683.2073    
    133000  -1812.0839      8.6095812     -1803.4743      271.86375      3427.2588      2683.2073    
    134000  -1811.8278      8.5999101     -1803.2279      271.55837      3423.4089      2683.2073    
    135000  -1812.4436      8.9623796     -1803.4812      283.00403      3567.699       2683.2073    
    136000  -1811.7538      9.2329951     -1802.5208      291.54922      3675.4242      2683.2073    
    137000  -1810.7804      9.3606556     -1801.4198      295.58034      3726.2427      2683.2073    
    138000  -1811.1841      9.1337902     -1802.0503      288.41664      3635.9333      2683.2073    
    139000  -1811.7605      8.4258545     -1803.3347      266.06223      3354.1218      2683.2073    
    140000  -1809.4925      9.226561      -1800.2659      291.34605      3672.863       2683.2073    
    141000  -1810.9457      9.5007902     -1801.4449      300.00535      3782.0268      2683.2073    
    142000  -1811.3305      10.295923     -1801.0345      325.11317      4098.5493      2683.2073    
    143000  -1811.8581      8.3799538     -1803.4782      264.61283      3335.8498      2683.2073    
    144000  -1810.1771      8.7398892     -1801.4372      275.97847      3479.1311      2683.2073    
    145000  -1811.0509      8.9124707     -1802.1384      281.42806      3547.8315      2683.2073    
    146000  -1811.182       8.0229726     -1803.159       253.34048      3193.7446      2683.2073    
    147000  -1810.1548      9.1653063     -1800.9895      289.41182      3648.479       2683.2073    
    148000  -1810.1282      9.0177782     -1801.1105      284.75334      3589.7518      2683.2073    
    149000  -1809.3825      8.5975563     -1800.7849      271.48404      3422.472       2683.2073    
    150000  -1811.1758      8.8974472     -1802.2784      280.95366      3541.851       2683.2073    
    151000  -1810.7107      8.7021244     -1802.0086      274.78598      3464.0979      2683.2073    
    152000  -1811.1204      8.7651857     -1802.3552      276.77726      3489.201       2683.2073    
    153000  -1811.0625      9.0669984     -1801.9955      286.30756      3609.3451      2683.2073    
    154000  -1811.3103      9.1516261     -1802.1587      288.97984      3643.0333      2683.2073    
    155000  -1811.5325      9.058483      -1802.474       286.03867      3605.9553      2683.2073    
    156000  -1811.7094      9.3621251     -1802.3472      295.62674      3726.8277      2683.2073    
    157000  -1811.3284      8.521461      -1802.8069      269.08119      3392.1803      2683.2073    
    158000  -1809.8581      9.3564542     -1800.5016      295.44767      3724.5702      2683.2073    
    159000  -1811.5822      8.0646076     -1803.5175      254.65518      3210.3184      2683.2073    
    160000  -1811.4621      8.6661357     -1802.7959      273.64957      3449.7717      2683.2073    
    161000  -1812.0678      9.4595272     -1802.6083      298.7024       3765.601       2683.2073    
    162000  -1811.337       8.5685658     -1802.7684      270.56861      3410.9316      2683.2073    
    163000  -1811.4079      8.8176691     -1802.5903      278.43452      3510.0934      2683.2073    
    164000  -1811.7005      8.6949678     -1803.0056      274.55999      3461.249       2683.2073    
    165000  -1810.6126      8.0611143     -1802.5514      254.54488      3208.9278      2683.2073    
    166000  -1812.5566      8.5661802     -1803.9904      270.49328      3409.9819      2683.2073    
    167000  -1810.8435      8.8890087     -1801.9545      280.6872       3538.4919      2683.2073    
    168000  -1812.0511      7.8458526     -1804.2053      247.74758      3123.2375      2683.2073    
    169000  -1810.7952      9.1035808     -1801.6916      287.46272      3623.9076      2683.2073    
    170000  -1812.1956      9.5415897     -1802.654       301.29367      3798.268       2683.2073    
    171000  -1811.6366      8.6441989     -1802.9924      272.95687      3441.0392      2683.2073    
    172000  -1811.3738      9.3430744     -1802.0308      295.02518      3719.244       2683.2073    
    173000  -1810.6027      8.9899291     -1801.6128      283.87395      3578.6657      2683.2073    
    174000  -1811.1679      8.8933703     -1802.2746      280.82493      3540.2281      2683.2073    
    175000  -1811.6219      8.3214802     -1803.3004      262.76642      3312.573       2683.2073    
    176000  -1810.3744      8.5155114     -1801.8589      268.89332      3389.8119      2683.2073    
    177000  -1810.9307      8.934527      -1801.9962      282.12453      3556.6116      2683.2073    
    178000  -1810.1633      9.0615611     -1801.1017      286.13587      3607.1807      2683.2073    
    179000  -1811.5783      8.3980158     -1803.1802      265.18317      3343.0399      2683.2073    
    180000  -1811.3961      8.6925866     -1802.7035      274.4848       3460.3011      2683.2073    
    181000  -1810.7983      9.0203198     -1801.778       284.83359      3590.7635      2683.2073    
    182000  -1810.5934      8.5892571     -1802.0041      271.22198      3419.1683      2683.2073    
    183000  -1811.5472      8.3938007     -1803.1534      265.05007      3341.3619      2683.2073    
    184000  -1811.6082      9.0176175     -1802.5906      284.74827      3589.6878      2683.2073    
    185000  -1811.4379      9.6961928     -1801.7417      306.17556      3859.8117      2683.2073    
    186000  -1810.5097      9.4596804     -1801.0501      298.70723      3765.662       2683.2073    
    187000  -1811.4489      9.9096402     -1801.5392      312.91556      3944.7797      2683.2073    
    188000  -1810.5985      9.9060002     -1800.6925      312.80062      3943.3307      2683.2073    
    189000  -1811.2702      9.4805664     -1801.7896      299.36675      3773.9762      2683.2073    
    190000  -1812.0105      9.0003795     -1803.0102      284.20394      3582.8258      2683.2073    
    191000  -1811.446       8.9685901     -1802.4774      283.20013      3570.1712      2683.2073    
    192000  -1810.4917      8.758239      -1801.7335      276.5579       3486.4357      2683.2073    
    193000  -1810.8916      8.5330693     -1802.3586      269.44774      3396.8013      2683.2073    
    194000  -1811.1704      8.2805336     -1802.8898      261.47345      3296.2732      2683.2073    
    195000  -1811.055       8.1437099     -1802.9113      257.15298      3241.8071      2683.2073    
    196000  -1811.2505      8.6443765     -1802.6062      272.96248      3441.1099      2683.2073    
    197000  -1812.0197      9.6436368     -1802.3761      304.516        3838.8904      2683.2073    
    198000  -1810.1774      9.3928525     -1800.7846      296.59702      3739.0595      2683.2073    
    199000  -1810.4244      8.9555911     -1801.4688      282.78966      3564.9966      2683.2073    
    200000  -1811.6526      8.9246754     -1802.7279      281.81344      3552.6899      2683.2073    
    201000  -1811.8663      8.8335943     -1803.0327      278.93739      3516.4328      2683.2073    
    202000  -1810.3487      8.9959312     -1801.3528      284.06348      3581.055       2683.2073    
    203000  -1810.5518      9.3521656     -1801.1996      295.31225      3722.863       2683.2073    
    204000  -1811.1301      9.042465      -1802.0877      285.53287      3599.579       2683.2073    
    205000  -1810.676       8.5345305     -1802.1415      269.49388      3397.383       2683.2073    
    206000  -1811.422       8.4067867     -1803.0152      265.46013      3346.5314      2683.2073    
    207000  -1811.3366      8.4950312     -1802.8415      268.24662      3381.6593      2683.2073    
    208000  -1812.213       9.2462491     -1802.9667      291.96774      3680.7003      2683.2073    
    209000  -1811.4732      8.6135773     -1802.8596      271.98993      3428.8495      2683.2073    
    210000  -1811.3727      9.4541074     -1801.9186      298.53126      3763.4435      2683.2073    
    211000  -1811.3932      9.0249586     -1802.3683      284.98008      3592.6101      2683.2073    
    212000  -1810.5558      8.5273788     -1802.0285      269.26806      3394.5361      2683.2073    
    213000  -1811.3783      8.7179387     -1802.6604      275.28534      3470.3932      2683.2073    
    214000  -1810.5964      8.3706166     -1802.2258      264.31799      3332.1329      2683.2073    
    215000  -1810.5357      8.9335493     -1801.6021      282.09365      3556.2224      2683.2073    
    216000  -1811.0131      8.8415069     -1802.1716      279.18724      3519.5826      2683.2073    
    217000  -1811.3104      9.3308494     -1801.9796      294.63915      3714.3776      2683.2073    
    218000  -1812.1366      9.7503666     -1802.3862      307.8862       3881.3769      2683.2073    
    219000  -1812.1245      9.6389424     -1802.4856      304.36777      3837.0217      2683.2073    
    220000  -1811.4949      9.7381993     -1801.7567      307.50199      3876.5334      2683.2073    
    221000  -1811.9303      8.8354792     -1803.0948      278.9969       3517.1831      2683.2073    
    222000  -1810.8717      8.6227142     -1802.249       272.27845      3432.4867      2683.2073    
    223000  -1811.5761      9.3966073     -1802.1795      296.71558      3740.5542      2683.2073    
    224000  -1811.3627      9.2528111     -1802.1099      292.17495      3683.3125      2683.2073    
    225000  -1811.2714      9.4272871     -1801.8442      297.68435      3752.767       2683.2073    
    226000  -1811.2293      8.517596      -1802.7117      268.95914      3390.6418      2683.2073    
    227000  -1811.6874      7.8174184     -1803.8699      246.84972      3111.9186      2683.2073    
    228000  -1811.1063      8.9368654     -1802.1695      282.19837      3557.5424      2683.2073    
    229000  -1811.4975      7.9331369     -1803.5644      250.50375      3157.9832      2683.2073    
    230000  -1810.7431      8.6456887     -1802.0974      273.00391      3441.6322      2683.2073    
    231000  -1810.3674      7.9579432     -1802.4095      251.28705      3167.858       2683.2073    
    232000  -1811.1161      8.7458634     -1802.3702      276.16712      3481.5093      2683.2073    
    233000  -1811.1928      9.0219561     -1802.1708      284.88526      3591.4149      2683.2073    
    234000  -1810.1167      9.2331768     -1800.8835      291.55496      3675.4966      2683.2073    
    235000  -1810.8573      8.7337556     -1802.1236      275.78479      3476.6895      2683.2073    
    236000  -1811.7545      9.2481229     -1802.5063      292.02691      3681.4463      2683.2073    
    237000  -1811.7015      9.3539734     -1802.3476      295.36934      3723.5827      2683.2073    
    238000  -1809.8745      8.764462      -1801.11        276.7544       3488.9129      2683.2073    
    239000  -1811.495       9.0420427     -1802.453       285.51954      3599.4109      2683.2073    
    240000  -1811.0118      8.3783674     -1802.6335      264.56274      3335.2183      2683.2073    
    241000  -1810.9278      8.3678139     -1802.56        264.22949      3331.0173      2683.2073    
    242000  -1811.4415      8.8632309     -1802.5783      279.87322      3528.2304      2683.2073    
    243000  -1811.1879      9.3136131     -1801.8742      294.09489      3707.5163      2683.2073    
    244000  -1810.9427      9.2779477     -1801.6648      292.96868      3693.3188      2683.2073    
    245000  -1811.6512      8.6627835     -1802.9885      273.54371      3448.4373      2683.2073    
    246000  -1811.1739      7.652969      -1803.5209      241.65692      3046.4554      2683.2073    
    247000  -1810.1833      8.7084763     -1801.4749      274.98655      3466.6264      2683.2073    
    248000  -1810.3182      8.4053871     -1801.9128      265.41594      3345.9742      2683.2073    
    249000  -1811.7512      8.312528      -1803.4387      262.48373      3309.0093      2683.2073    
    250000  -1810.9574      8.6263592     -1802.331       272.39355      3433.9377      2683.2073    
    251000  -1811.8254      8.9071934     -1802.9182      281.26142      3545.7307      2683.2073    
    252000  -1810.7024      8.1212082     -1802.5812      256.44245      3232.8497      2683.2073    
    253000  -1811.3182      9.6412414     -1801.6769      304.44037      3837.9369      2683.2073    
    254000  -1810.6321      9.2958154     -1801.3362      293.53289      3700.4314      2683.2073    
    255000  -1810.6217      9.3542696     -1801.2674      295.37869      3723.7006      2683.2073    
    256000  -1810.9158      8.5334054     -1802.3824      269.45836      3396.9351      2683.2073    
    257000  -1809.5774      9.2684657     -1800.3089      292.66927      3689.5442      2683.2073    
    258000  -1811.8092      9.8013817     -1802.0078      309.4971       3901.6847      2683.2073    
    259000  -1811.6851      9.1043897     -1802.5807      287.48826      3624.2296      2683.2073    
    260000  -1811.1309      8.9966477     -1802.1343      284.0861       3581.3402      2683.2073    
    261000  -1811.4399      9.2418184     -1802.1981      291.82783      3678.9366      2683.2073    
    262000  -1811.983       7.9469315     -1804.0361      250.93934      3163.4745      2683.2073    
    263000  -1811.4159      8.6242226     -1802.7917      272.32608      3433.0871      2683.2073    
    264000  -1811.1746      7.9956319     -1803.179       252.47714      3182.8609      2683.2073    
    265000  -1811.9458      8.0155676     -1803.9302      253.10665      3190.7968      2683.2073    
    266000  -1810.8134      8.6608539     -1802.1526      273.48278      3447.6691      2683.2073    
    267000  -1811.4623      9.0006564     -1802.4616      284.21269      3582.936       2683.2073    
    268000  -1810.8232      9.3860469     -1801.4371      296.38212      3736.3503      2683.2073    
    269000  -1810.0825      9.0729349     -1801.0096      286.49502      3611.7083      2683.2073    
    270000  -1811.6139      9.1307115     -1802.4832      288.31942      3634.7077      2683.2073    
    271000  -1810.7991      9.1186868     -1801.6804      287.93972      3629.921       2683.2073    
    272000  -1809.923       8.7230925     -1801.1999      275.44808      3472.4448      2683.2073    
    273000  -1811.1549      9.0858579     -1802.069       286.90308      3616.8526      2683.2073    
    274000  -1811.6744      9.0680119     -1802.6064      286.33956      3609.7485      2683.2073    
    275000  -1810.3398      8.37798       -1801.9618      264.55051      3335.0641      2683.2073    
    276000  -1811.4033      9.1636136     -1802.2396      289.35837      3647.8052      2683.2073    
    277000  -1812.4589      8.4743305     -1803.9846      267.59295      3373.4188      2683.2073    
    278000  -1811.3561      8.0528861     -1803.3033      254.28505      3205.6524      2683.2073    
    279000  -1810.754       8.7488615     -1802.0051      276.26179      3482.7028      2683.2073    
    280000  -1810.5416      8.5102221     -1802.0313      268.7263       3387.7064      2683.2073    
    281000  -1812.0906      9.0886657     -1803.002       286.99175      3617.9703      2683.2073    
    282000  -1810.7168      7.676021      -1803.0408      242.38483      3055.6318      2683.2073    
    283000  -1811.7038      8.6357722     -1803.068       272.69078      3437.6847      2683.2073    
    284000  -1812.0997      8.2759519     -1803.8238      261.32878      3294.4493      2683.2073    
    285000  -1812.3092      8.1563395     -1804.1528      257.55179      3246.8346      2683.2073    
    286000  -1811.6668      9.4090661     -1802.2577      297.10899      3745.5137      2683.2073    
    287000  -1812           9.4845396     -1802.5155      299.49221      3775.5578      2683.2073    
    288000  -1811.1946      8.2722717     -1802.9223      261.21257      3292.9843      2683.2073    
    289000  -1810.9681      8.2931408     -1802.675       261.87155      3301.2918      2683.2073    
    290000  -1811.0659      9.0196395     -1802.0463      284.81211      3590.4927      2683.2073    
    291000  -1811.7954      9.0024548     -1802.793       284.26947      3583.6519      2683.2073    
    292000  -1811.9994      8.6899237     -1803.3094      274.40072      3459.2411      2683.2073    
    293000  -1811.7574      8.5396772     -1803.2177      269.6564       3399.4317      2683.2073    
    294000  -1810.2896      9.7031313     -1800.5865      306.39465      3862.5737      2683.2073    
    295000  -1811.8228      8.3719005     -1803.4509      264.35853      3332.644       2683.2073    
    296000  -1810.4954      10.286071     -1800.2093      324.80208      4094.6275      2683.2073    
    297000  -1811.0186      8.9798712     -1802.0387      283.55636      3574.662       2683.2073    
    298000  -1810.9073      8.7603327     -1802.1469      276.62401      3487.2692      2683.2073    
    299000  -1812.4528      9.5590963     -1802.8937      301.84648      3805.237       2683.2073    
    300000  -1811.5836      9.6961791     -1801.8874      306.17513      3859.8062      2683.2073    
    301000  -1811.3071      9.3883259     -1801.9188      296.45408      3737.2575      2683.2073    
    302000  -1810.4211      8.8417637     -1801.5793      279.19535      3519.6848      2683.2073    
    303000  -1812.2592      9.0634626     -1803.1957      286.19591      3607.9376      2683.2073    
    304000  -1812.3563      8.5230303     -1803.8333      269.13074      3392.805       2683.2073    
    305000  -1810.5635      9.1729067     -1801.3905      289.65181      3651.5045      2683.2073    
    306000  -1811.7969      9.5832768     -1802.2137      302.61002      3814.8626      2683.2073    
    307000  -1812.4335      9.2173207     -1803.2162      291.05427      3669.1847      2683.2073    
    308000  -1811.8638      9.7319631     -1802.1318      307.30507      3874.0509      2683.2073    
    309000  -1812.1047      9.7516168     -1802.3531      307.92568      3881.8746      2683.2073    
    310000  -1811.7132      9.2369272     -1802.4763      291.67338      3676.9895      2683.2073    
    311000  -1811.968       8.7062789     -1803.2617      274.91716      3465.7517      2683.2073    
    312000  -1811.3328      9.0818586     -1802.2509      286.7768       3615.2606      2683.2073    
    313000  -1812.026       7.765522      -1804.2605      245.21099      3091.2599      2683.2073    
    314000  -1810.8005      8.7602945     -1802.0402      276.62281      3487.254       2683.2073    
    315000  -1810.8327      8.3154161     -1802.5173      262.57493      3310.159       2683.2073    
    316000  -1810.8677      9.4569117     -1801.4108      298.61981      3764.5598      2683.2073    
    317000  -1811.3483      9.5054811     -1801.8428      300.15348      3783.8941      2683.2073    
    318000  -1810.5107      8.7039007     -1801.8068      274.84207      3464.805       2683.2073    
    319000  -1810.3802      9.4977497     -1800.8824      299.90934      3780.8164      2683.2073    
    320000  -1810.6739      8.8992659     -1801.7747      281.01109      3542.575       2683.2073    
    321000  -1810.769       8.309379      -1802.4596      262.3843       3307.7558      2683.2073    
    322000  -1811.6398      9.150982      -1802.4888      288.9595       3642.7769      2683.2073    
    323000  -1811.4586      8.1379536     -1803.3206      256.97122      3239.5156      2683.2073    
    324000  -1810.5696      9.1276749     -1801.4419      288.22354      3633.4989      2683.2073    
    325000  -1811.7496      8.5035714     -1803.246       268.51629      3385.0589      2683.2073    
    326000  -1811.0969      8.862145      -1802.2347      279.83893      3527.7981      2683.2073    
    327000  -1810.4548      8.9946731     -1801.4601      284.02375      3580.5542      2683.2073    
    328000  -1812.3169      9.7705926     -1802.5464      308.52487      3889.4284      2683.2073    
    329000  -1811.3143      8.9105435     -1802.4037      281.3672       3547.0643      2683.2073    
    330000  -1810.0833      9.9316352     -1800.1517      313.6101       3953.5354      2683.2073    
    331000  -1810.8349      9.1454003     -1801.6895      288.78325      3640.5549      2683.2073    
    332000  -1810.1579      9.2202449     -1800.9376      291.14661      3670.3487      2683.2073    
    333000  -1810.7157      8.549358      -1802.1663      269.96209      3403.2854      2683.2073    
    334000  -1811.6767      8.2052059     -1803.4715      259.09484      3266.2871      2683.2073    
    335000  -1811.164       9.5551284     -1801.6089      301.72118      3803.6574      2683.2073    
    336000  -1811.3416      9.052499      -1802.2891      285.84972      3603.5733      2683.2073    
    337000  -1811.2578      9.2066385     -1802.0511      290.71696      3664.9324      2683.2073    
    338000  -1811.5128      7.962036      -1803.5508      251.41629      3169.4872      2683.2073    
    339000  -1812.2441      8.3599005     -1803.8842      263.97961      3327.8671      2683.2073    
    340000  -1811.482       7.8427705     -1803.6393      247.65026      3122.0106      2683.2073    
    341000  -1810.2348      9.3316132     -1800.9031      294.66327      3714.6816      2683.2073    
    342000  -1810.903       8.3372342     -1802.5657      263.26388      3318.8442      2683.2073    
    343000  -1811.2524      8.828458      -1802.4239      278.7752       3514.3882      2683.2073    
    344000  -1811.405       8.4878866     -1802.9171      268.02101      3378.8152      2683.2073    
    345000  -1812.0696      9.1081326     -1802.9615      287.60645      3625.7196      2683.2073    
    346000  -1811.4906      9.4775097     -1802.0131      299.27023      3772.7594      2683.2073    
    347000  -1811.7259      9.2787282     -1802.4472      292.99333      3693.6294      2683.2073    
    348000  -1811.2271      9.0136745     -1802.2134      284.62376      3588.1182      2683.2073    
    349000  -1811.0376      9.0705691     -1801.9671      286.42031      3610.7665      2683.2073    
    350000  -1811.1032      8.7395074     -1802.3637      275.96641      3478.9791      2683.2073    
    351000  -1811.0699      8.3244996     -1802.7454      262.86176      3313.7749      2683.2073    
    352000  -1810.9017      8.3663489     -1802.5354      264.18323      3330.4341      2683.2073    
    353000  -1811.6957      9.6482892     -1802.0474      304.66291      3840.7424      2683.2073    
    354000  -1811.5435      9.003054      -1802.5404      284.28839      3583.8904      2683.2073    
    355000  -1812.4407      8.9335553     -1803.5072      282.09384      3556.2247      2683.2073    
    356000  -1812.028       8.5217166     -1803.5063      269.08926      3392.2821      2683.2073    
    357000  -1810.7818      8.6206814     -1802.1611      272.21426      3431.6775      2683.2073    
    358000  -1811.4063      8.2526696     -1803.1536      260.59359      3285.1812      2683.2073    
    359000  -1811.7574      8.8520172     -1802.9054      279.51912      3523.7665      2683.2073    
    360000  -1812.2809      9.355154      -1802.9258      295.40662      3724.0526      2683.2073    
    361000  -1811.2674      8.7995932     -1802.4678      277.86374      3502.8978      2683.2073    
    362000  -1812.0581      9.3633584     -1802.6947      295.66569      3727.3186      2683.2073    
    363000  -1811.9788      8.8901473     -1803.0886      280.72315      3538.9451      2683.2073    
    364000  -1812.3026      8.393456      -1803.9092      265.03919      3341.2247      2683.2073    
    365000  -1811.3625      8.6625777     -1802.6999      273.53721      3448.3554      2683.2073    
    366000  -1809.9405      8.3532424     -1801.5872      263.76937      3325.2167      2683.2073    
    367000  -1810.6934      9.1544131     -1801.539       289.06784      3644.1427      2683.2073    
    368000  -1809.8922      8.6512945     -1801.2409      273.18092      3443.8638      2683.2073    
    369000  -1810.5997      8.1548092     -1802.4449      257.50347      3246.2254      2683.2073    
    370000  -1810.3096      9.0686589     -1801.241       286.35999      3610.0061      2683.2073    
    371000  -1810.8632      8.6992882     -1802.1639      274.69642      3462.9689      2683.2073    
    372000  -1811.4209      8.5456184     -1802.8753      269.844        3401.7968      2683.2073    
    373000  -1810.8814      8.4408552     -1802.4405      266.53591      3360.0932      2683.2073    
    374000  -1811.6283      9.5637064     -1802.0646      301.99205      3807.0721      2683.2073    
    375000  -1812.1169      9.5474912     -1802.5694      301.48003      3800.6173      2683.2073    
    376000  -1812.011       9.6704447     -1802.3405      305.36251      3849.562       2683.2073    
    377000  -1811.7352      8.8628979     -1802.8723      279.8627       3528.0978      2683.2073    
    378000  -1812.2981      9.3673269     -1802.9307      295.791        3728.8984      2683.2073    
    379000  -1811.9768      9.1538264     -1802.823       289.04932      3643.9091      2683.2073    
    380000  -1812.211       9.6372015     -1802.5738      304.3128       3836.3287      2683.2073    
    381000  -1811.3702      8.7517804     -1802.6184      276.35396      3483.8647      2683.2073    
    382000  -1811.6864      8.41543       -1803.271       265.73306      3349.972       2683.2073    
    383000  -1811.1483      9.1354823     -1802.0129      288.47007      3636.6068      2683.2073    
    384000  -1811.6498      8.2587734     -1803.3911      260.78633      3287.611       2683.2073    
    385000  -1811.6184      8.4940017     -1803.1244      268.21411      3381.2495      2683.2073    
    386000  -1811.2739      9.1722107     -1802.1017      289.62984      3651.2275      2683.2073    
    387000  -1809.9987      8.529248      -1801.4695      269.32708      3395.2801      2683.2073    
    388000  -1811.0727      9.2842965     -1801.7884      293.16916      3695.846       2683.2073    
    389000  -1811.6531      8.7124059     -1802.9407      275.11063      3468.1907      2683.2073    
    390000  -1811.6355      8.0583471     -1803.5772      254.4575       3207.8263      2683.2073    
    391000  -1811.1702      9.7134736     -1801.4567      306.72123      3866.6907      2683.2073    
    392000  -1811.4974      8.7916632     -1802.7058      277.61333      3499.7411      2683.2073    
    393000  -1811.6608      8.6408769     -1803.0199      272.85197      3439.7168      2683.2073    
    394000  -1811.8059      8.7407515     -1803.0651      276.0057       3479.4744      2683.2073    
    395000  -1810.582       8.7121905     -1801.8698      275.10383      3468.105       2683.2073    
    396000  -1811.8526      7.9501261     -1803.9024      251.04021      3164.7462      2683.2073    
    397000  -1810.8494      9.1319533     -1801.7174      288.35863      3635.202       2683.2073    
    398000  -1811.1842      8.5253375     -1802.6589      269.2036       3393.7235      2683.2073    
    399000  -1811.0119      8.4578268     -1802.554       267.07182      3366.8492      2683.2073    
    400000  -1811.1983      8.597851      -1802.6005      271.49335      3422.5893      2683.2073    
    401000  -1811.4572      9.5846963     -1801.8725      302.65485      3815.4277      2683.2073    
    402000  -1811.2126      8.3129856     -1802.8996      262.49818      3309.1915      2683.2073    
    403000  -1810.6883      7.9471088     -1802.7412      250.94494      3163.5451      2683.2073    
    404000  -1810.8675      8.1391015     -1802.7284      257.00747      3239.9726      2683.2073    
    405000  -1812.2723      8.5719133     -1803.7004      270.67432      3412.2641      2683.2073    
    406000  -1810.4063      10.129119     -1800.2772      319.84601      4032.1487      2683.2073    
    407000  -1811.4735      9.0121188     -1802.4614      284.57463      3587.4989      2683.2073    
    408000  -1812.1133      8.9741607     -1803.1391      283.37604      3572.3887      2683.2073    
    409000  -1810.3342      8.3456715     -1801.9885      263.5303       3322.2029      2683.2073    
    410000  -1811.1144      9.679632      -1801.4348      305.65262      3853.2192      2683.2073    
    411000  -1810.3822      8.3262954     -1802.0559      262.91847      3314.4898      2683.2073    
    412000  -1811.4005      9.2159555     -1802.1845      291.01116      3668.6412      2683.2073    
    413000  -1811.9341      9.2977983     -1802.6363      293.5955       3701.2208      2683.2073    
    414000  -1811.4756      8.2371625     -1803.2384      260.10393      3279.0082      2683.2073    
    415000  -1811.7242      8.6066725     -1803.1175      271.7719       3426.1009      2683.2073    
    416000  -1812.0042      9.0494737     -1802.9547      285.75419      3602.369       2683.2073    
    417000  -1809.477       8.6783396     -1800.7986      274.03493      3454.6298      2683.2073    
    418000  -1810.4662      8.5114585     -1801.9547      268.76534      3388.1986      2683.2073    
    419000  -1811.2985      7.8373889     -1803.4611      247.48032      3119.8683      2683.2073    
    420000  -1811.2045      9.2970815     -1801.9074      293.57287      3700.9354      2683.2073    
    421000  -1810.465       9.1452982     -1801.3197      288.78002      3640.5143      2683.2073    
    422000  -1809.5605      9.070717      -1800.4898      286.42498      3610.8254      2683.2073    
    423000  -1810.8047      9.4354491     -1801.3692      297.94209      3756.0161      2683.2073    
    424000  -1811.4288      8.9650123     -1802.4638      283.08716      3568.747       2683.2073    
    425000  -1811.2583      9.0771297     -1802.1811      286.62748      3613.3781      2683.2073    
    426000  -1810.601       9.6853916     -1800.9156      305.83449      3855.5119      2683.2073    
    427000  -1810.163       9.3546892     -1800.8083      295.39194      3723.8676      2683.2073    
    428000  -1811.6567      8.8555369     -1802.8012      279.63026      3525.1676      2683.2073    
    429000  -1811.6545      9.1823945     -1802.4721      289.95141      3655.2814      2683.2073    
    430000  -1811.218       8.8395168     -1802.3785      279.1244       3518.7904      2683.2073    
    431000  -1810.9753      9.1763111     -1801.799       289.75931      3652.8597      2683.2073    
    432000  -1810.7742      8.7494411     -1802.0248      276.28009      3482.9335      2683.2073    
    433000  -1811.4875      9.9529047     -1801.5346      314.28172      3962.0022      2683.2073    
    434000  -1810.5214      7.847549      -1802.6738      247.80115      3123.9128      2683.2073    
    435000  -1811.4715      8.3297773     -1803.1418      263.02841      3315.8758      2683.2073    
    436000  -1810.831       8.8585677     -1801.9724      279.72597      3526.3741      2683.2073    
    437000  -1811.2627      9.7131195     -1801.5496      306.71005      3866.5497      2683.2073    
    438000  -1811.0188      8.8244224     -1802.1944      278.64776      3512.7817      2683.2073    
    439000  -1811.9189      9.2529357     -1802.6659      292.17888      3683.3621      2683.2073    
    440000  -1812.4262      8.4543315     -1803.9719      266.96145      3365.4578      2683.2073    
    441000  -1811.2816      9.1389792     -1802.1427      288.58049      3637.9988      2683.2073    
    442000  -1811.0226      8.9601531     -1802.0625      282.93372      3566.8127      2683.2073    
    443000  -1811.7309      7.5877376     -1804.1432      239.59711      3020.4884      2683.2073    
    444000  -1810.8813      8.5515001     -1802.3298      270.02973      3404.1382      2683.2073    
    445000  -1810.8778      9.2649289     -1801.6129      292.55759      3688.1363      2683.2073    
    446000  -1810.7755      8.7810792     -1801.9944      277.27912      3495.5278      2683.2073    
    447000  -1810.2806      8.5876614     -1801.6929      271.17159      3418.533       2683.2073    
    448000  -1811.8877      8.9297826     -1802.9579      281.97471      3554.723       2683.2073    
    449000  -1811.403       8.8868158     -1802.5162      280.61796      3537.6189      2683.2073    
    450000  -1811.4201      8.7876598     -1802.6325      277.48692      3498.1474      2683.2073    
    451000  -1811.7709      8.887463      -1802.8834      280.63839      3537.8766      2683.2073    
    452000  -1811.6357      9.0099405     -1802.6258      284.50585      3586.6318      2683.2073    
    453000  -1810.7977      10.217769     -1800.58        322.64532      4067.4381      2683.2073    
    454000  -1810.136       8.8076429     -1801.3284      278.11792      3506.1022      2683.2073    
    455000  -1811.1088      8.7706784     -1802.3382      276.9507       3491.3875      2683.2073    
    456000  -1810.9021      8.9792244     -1801.9228      283.53593      3574.4045      2683.2073    
    457000  -1811.0689      9.2224125     -1801.8465      291.21505      3671.2116      2683.2073    
    458000  -1810.8662      8.1986037     -1802.6676      258.88636      3263.6589      2683.2073    
    459000  -1809.8374      8.7785464     -1801.0589      277.19914      3494.5196      2683.2073    
    460000  -1811.1376      8.7995658     -1802.338       277.86287      3502.8869      2683.2073    
    461000  -1810.7106      8.8938219     -1801.8168      280.83918      3540.4079      2683.2073    
    462000  -1811.0441      7.9625594     -1803.0816      251.43282      3169.6956      2683.2073    
    463000  -1810.2727      8.2607314     -1802.012       260.84816      3288.3904      2683.2073    
    464000  -1811.1546      9.0415833     -1802.113       285.50503      3599.228       2683.2073    
    465000  -1811.8218      9.1878871     -1802.6339      290.12485      3657.4679      2683.2073    
    466000  -1811.4913      8.9349114     -1802.5564      282.13666      3556.7646      2683.2073    
    467000  -1810.5693      9.4639996     -1801.1053      298.84362      3767.3813      2683.2073    
    468000  -1810.0461      8.8004902     -1801.2457      277.89206      3503.2548      2683.2073    
    469000  -1812.5044      8.0304575     -1804.474       253.57683      3196.7241      2683.2073    
    470000  -1811.6353      8.6491822     -1802.9861      273.11423      3443.0229      2683.2073    
    471000  -1810.9271      8.2565717     -1802.6705      260.71681      3286.7345      2683.2073    
    472000  -1811.1472      8.7875969     -1802.3597      277.48493      3498.1223      2683.2073    
    473000  -1811.6196      9.3996509     -1802.2199      296.81169      3741.7658      2683.2073    
    474000  -1811.6965      8.2619692     -1803.4345      260.88724      3288.8831      2683.2073    
    475000  -1811.5779      8.6787879     -1802.8992      274.04908      3454.8082      2683.2073    
    476000  -1810.7169      9.4166169     -1801.3003      297.34742      3748.5195      2683.2073    
    477000  -1811.1909      9.0741294     -1802.1168      286.53273      3612.1838      2683.2073    
    478000  -1810.529       8.7664546     -1801.7626      276.81732      3489.7061      2683.2073    
    479000  -1810.5169      9.090117      -1801.4268      287.03757      3618.5481      2683.2073    
    480000  -1812.1966      8.4186404     -1803.778       265.83443      3351.25        2683.2073    
    481000  -1811.1092      8.8627859     -1802.2465      279.85917      3528.0532      2683.2073    
    482000  -1811.6334      9.2035771     -1802.4299      290.62029      3663.7137      2683.2073    
    483000  -1812.6983      8.6551772     -1804.0431      273.30353      3445.4094      2683.2073    
    484000  -1812.1661      9.2698936     -1802.8963      292.71436      3690.1126      2683.2073    
    485000  -1812.1471      9.3357343     -1802.8113      294.7934       3716.3222      2683.2073    
    486000  -1811.8431      8.5151325     -1803.328       268.88135      3389.6611      2683.2073    
    487000  -1811.4353      9.5291373     -1801.9062      300.90047      3793.3111      2683.2073    
    488000  -1810.987       8.7319227     -1802.2551      275.72691      3475.9599      2683.2073    
    489000  -1811.2055      9.7447286     -1801.4608      307.70817      3879.1325      2683.2073    
    490000  -1811.329       9.4409726     -1801.8881      298.1165       3758.2149      2683.2073    
    491000  -1810.9121      7.3969506     -1803.5151      233.57265      2944.5409      2683.2073    
    492000  -1810.7919      8.5259511     -1802.2659      269.22297      3393.9677      2683.2073    
    493000  -1812.1091      9.3329255     -1802.7762      294.70471      3715.204       2683.2073    
    494000  -1811.2996      9.0631241     -1802.2365      286.18522      3607.8028      2683.2073    
    495000  -1810.3495      9.0974727     -1801.2521      287.26984      3621.4762      2683.2073    
    496000  -1810.4741      9.0652926     -1801.4088      286.2537       3608.6661      2683.2073    
    497000  -1810.5766      8.4215963     -1802.155       265.92777      3352.4267      2683.2073    
    498000  -1811.4717      8.6213596     -1802.8503      272.23568      3431.9475      2683.2073    
    499000  -1812.1119      8.7670033     -1803.3449      276.83465      3489.9246      2683.2073    
    500000  -1810.3729      9.3946893     -1800.9782      296.65502      3739.7906      2683.2073    
    501000  -1811.0071      9.906679      -1801.1004      312.82206      3943.6009      2683.2073    
    502000  -1811.7667      8.1766249     -1803.5901      258.19234      3254.9097      2683.2073    
    503000  -1810.9328      8.3051561     -1802.6276      262.25095      3306.0747      2683.2073    
    504000  -1810.0292      9.4478596     -1800.5813      298.33397      3760.9564      2683.2073    
    505000  -1810.3687      9.1575864     -1801.2112      289.16805      3645.4059      2683.2073    
    506000  -1811.3429      8.7311738     -1802.6117      275.70326      3475.6617      2683.2073    
    507000  -1811.3573      8.9322665     -1802.425       282.05315      3555.7117      2683.2073    
    508000  -1811.2429      9.0363425     -1802.2065      285.33954      3597.1418      2683.2073    
    509000  -1811.0712      8.1477365     -1802.9234      257.28013      3243.41        2683.2073    
    510000  -1810.6141      7.5494412     -1803.0647      238.38783      3005.2436      2683.2073    
    511000  -1811.6954      9.1604212     -1802.535       289.25756      3646.5344      2683.2073    
    512000  -1811.235       8.8692381     -1802.3658      280.06291      3530.6217      2683.2073    
    513000  -1811.1293      8.8732118     -1802.2561      280.18838      3532.2035      2683.2073    
    514000  -1811.9167      9.3504259     -1802.5663      295.25732      3722.1705      2683.2073    
    515000  -1811.3629      9.7668447     -1801.5961      308.40652      3887.9364      2683.2073    
    516000  -1811.8535      8.8670014     -1802.9865      279.99228      3529.7313      2683.2073    
    517000  -1810.8265      8.1401667     -1802.6863      257.0411       3240.3966      2683.2073    
    518000  -1811.1792      9.1123218     -1802.0669      287.73873      3627.3872      2683.2073    
    519000  -1811.9046      8.9572498     -1802.9473      282.84204      3565.657       2683.2073    
    520000  -1811.5337      8.7437932     -1802.7899      276.10175      3480.6852      2683.2073    
    521000  -1811.6481      8.944589      -1802.7035      282.44225      3560.617       2683.2073    
    522000  -1811.4361      8.3766455     -1803.0595      264.50837      3334.5329      2683.2073    
    523000  -1811.6924      8.1597515     -1803.5326      257.65953      3248.1928      2683.2073    
    524000  -1811.494       8.8176946     -1802.6763      278.43532      3510.1035      2683.2073    
    525000  -1810.8664      9.6112994     -1801.2551      303.49489      3826.0177      2683.2073    
    526000  -1811.8496      8.525204      -1803.3244      269.19938      3393.6703      2683.2073    
    527000  -1812.5725      8.7199354     -1803.8526      275.34839      3471.188       2683.2073    
    528000  -1811.3875      8.2615739     -1803.126       260.87476      3288.7258      2683.2073    
    529000  -1811.0734      9.6973578     -1801.376       306.21235      3860.2754      2683.2073    
    530000  -1812.6604      9.3319195     -1803.3285      294.67294      3714.8036      2683.2073    
    531000  -1810.9435      7.7107668     -1803.2327      243.48199      3069.4633      2683.2073    
    532000  -1810.6956      8.879199      -1801.8164      280.37744      3534.5869      2683.2073    
    533000  -1810.3367      9.2498352     -1801.0868      292.08098      3682.1279      2683.2073    
    534000  -1810.7461      9.2282986     -1801.5178      291.40092      3673.5547      2683.2073    
    535000  -1811.4396      8.0514506     -1803.3882      254.23973      3205.081       2683.2073    
    536000  -1811.3996      8.0304233     -1803.3692      253.57575      3196.7105      2683.2073    
    537000  -1811.4165      8.284532      -1803.132       261.59971      3297.8648      2683.2073    
    538000  -1811.0723      8.2158389     -1802.8565      259.43059      3270.5198      2683.2073    
    539000  -1811.2596      9.131962      -1802.1276      288.35891      3635.2055      2683.2073    
    540000  -1811.3737      8.8413797     -1802.5323      279.18322      3519.532       2683.2073    
    541000  -1810.8067      8.8030288     -1802.0037      277.97222      3504.2654      2683.2073    
    542000  -1811.7652      8.4941735     -1803.271       268.21953      3381.3179      2683.2073    
    543000  -1811.7228      9.1416792     -1802.5811      288.66575      3639.0737      2683.2073    
    544000  -1811.6923      9.3948022     -1802.2975      296.65858      3739.8356      2683.2073    
    545000  -1810.8045      8.176997      -1802.6275      258.20409      3255.0578      2683.2073    
    546000  -1812.0893      8.3412606     -1803.748       263.39102      3320.447       2683.2073    
    547000  -1810.7476      8.9049679     -1801.8426      281.19114      3544.8448      2683.2073    
    548000  -1811.5679      8.6337747     -1802.9341      272.62771      3436.8896      2683.2073    
    549000  -1811.0137      8.7586628     -1802.255       276.57128      3486.6044      2683.2073    
    550000  -1810.8414      9.3358443     -1801.5055      294.79688      3716.3659      2683.2073    
    551000  -1810.8301      9.0866085     -1801.7434      286.92679      3617.1514      2683.2073    
    552000  -1811.969       9.2181812     -1802.7508      291.08144      3669.5272      2683.2073    
    553000  -1810.3845      8.8612439     -1801.5233      279.81047      3527.4394      2683.2073    
    554000  -1809.5501      10.715478     -1798.8346      338.36141      4265.5635      2683.2073    
    555000  -1810.7855      9.4451769     -1801.3403      298.24926      3759.8885      2683.2073    
    556000  -1811.1111      8.6704453     -1802.4406      273.78565      3451.4872      2683.2073    
    557000  -1811.8898      8.9117744     -1802.9781      281.40607      3547.5543      2683.2073    
    558000  -1810.8479      9.1380007     -1801.7099      288.54959      3637.6093      2683.2073    
    559000  -1810.8747      8.9214385     -1801.9533      281.71123      3551.4014      2683.2073    
    560000  -1810.9123      7.9703999     -1802.9419      251.6804       3172.8167      2683.2073    
    561000  -1810.4534      9.051253      -1801.4021      285.81037      3603.0773      2683.2073    
    562000  -1811.4449      8.4493694     -1802.9955      266.80476      3363.4825      2683.2073    
    563000  -1811.3066      8.8176596     -1802.4889      278.43422      3510.0896      2683.2073    
    564000  -1810.3546      9.5064796     -1800.8481      300.18501      3784.2916      2683.2073    
    565000  -1811.7479      9.2257601     -1802.5221      291.32076      3672.5442      2683.2073    
    566000  -1811.7519      9.2404885     -1802.5114      291.78584      3678.4072      2683.2073    
    567000  -1812.0793      8.9422323     -1803.137       282.36784      3559.6789      2683.2073    
    568000  -1812.4306      8.6484922     -1803.7821      273.09244      3442.7483      2683.2073    
    569000  -1811.2531      9.0507584     -1802.2024      285.79475      3602.8804      2683.2073    
    570000  -1811.1531      8.4331046     -1802.72        266.29117      3357.0079      2683.2073    
    571000  -1812.302       8.7065769     -1803.5954      274.92657      3465.8703      2683.2073    
    572000  -1811.76        8.4856378     -1803.2743      267.95         3377.92        2683.2073    
    573000  -1810.3287      8.511098      -1801.8176      268.75396      3388.0551      2683.2073    
    574000  -1810.1281      9.0562524     -1801.0718      285.96823      3605.0674      2683.2073    
    575000  -1810.8233      8.5756373     -1802.2477      270.79191      3413.7466      2683.2073    
    576000  -1810.4794      8.8383834     -1801.641       279.08861      3518.3392      2683.2073    
    577000  -1811.5565      9.2847525     -1802.2718      293.18356      3696.0276      2683.2073    
    578000  -1811.6285      9.3909813     -1802.2375      296.53793      3738.3146      2683.2073    
    579000  -1811.4097      8.8982748     -1802.5114      280.97979      3542.1804      2683.2073    
    580000  -1810.6386      8.3051218     -1802.3335      262.24987      3306.0611      2683.2073    
    581000  -1812.0473      8.309333      -1803.738       262.38285      3307.7375      2683.2073    
    582000  -1811.2124      8.7824957     -1802.4299      277.32385      3496.0917      2683.2073    
    583000  -1810.7691      8.6819447     -1802.0872      274.14876      3456.0649      2683.2073    
    584000  -1811.9376      8.7231327     -1803.2144      275.44935      3472.4608      2683.2073    
    585000  -1811.6524      9.2287392     -1802.4236      291.41483      3673.7301      2683.2073    
    586000  -1812.869       7.9633219     -1804.9056      251.45689      3169.9991      2683.2073    
    587000  -1810.9943      8.9375589     -1802.0567      282.22026      3557.8185      2683.2073    
    588000  -1811.4347      8.9366174     -1802.498       282.19053      3557.4437      2683.2073    
    589000  -1812.476       9.066352      -1803.4096      286.28715      3609.0878      2683.2073    
    590000  -1812.0187      9.4498067     -1802.5689      298.39545      3761.7315      2683.2073    
    591000  -1812.644       9.3366932     -1803.3073      294.82368      3716.7038      2683.2073    
    592000  -1811.8921      8.2820827     -1803.61        261.52237      3296.8898      2683.2073    
    593000  -1811.5977      8.7051254     -1802.8925      274.88074      3465.2925      2683.2073    
    594000  -1811.877       8.913755      -1802.9632      281.46861      3548.3428      2683.2073    
    595000  -1812.303       8.8836325     -1803.4193      280.51744      3536.3517      2683.2073    
    596000  -1812.6061      7.9495009     -1804.6566      251.02047      3164.4973      2683.2073    
    597000  -1812.8648      8.3803696     -1804.4845      264.62596      3336.0154      2683.2073    
    598000  -1811.9917      9.2332432     -1802.7585      291.55705      3675.523       2683.2073    
    599000  -1811.4921      9.0843634     -1802.4077      286.85589      3616.2577      2683.2073    
    600000  -1811.7641      8.7062867     -1803.0578      274.91741      3465.7548      2683.2073    
    601000  -1811.9131      9.1165062     -1802.7966      287.87086      3629.0529      2683.2073    
    602000  -1811.6696      9.88897       -1801.7806      312.26286      3936.5514      2683.2073    
    603000  -1811.5791      8.6821972     -1802.8969      274.15674      3456.1654      2683.2073    
    604000  -1812.5426      9.0745143     -1803.4681      286.54489      3612.337       2683.2073    
    605000  -1811.8919      8.9065403     -1802.9854      281.24079      3545.4708      2683.2073    
    606000  -1811.0517      9.4435408     -1801.6082      298.19759      3759.2372      2683.2073    
    607000  -1810.8496      9.0445691     -1801.805       285.59931      3600.4166      2683.2073    
    608000  -1810.2677      8.8563908     -1801.4113      279.65723      3525.5075      2683.2073    
    609000  -1811.65        10.070926     -1801.579       318.00845      4008.9834      2683.2073    
    610000  -1810.8764      8.9937311     -1801.8826      283.99401      3580.1792      2683.2073    
    611000  -1810.8723      9.172596      -1801.6997      289.642        3651.3809      2683.2073    
    612000  -1811.9389      8.7116435     -1803.2273      275.08656      3467.8872      2683.2073    
    613000  -1810.8284      8.982825      -1801.8456      283.64963      3575.8378      2683.2073    
    614000  -1810.1865      9.0014972     -1801.185       284.23924      3583.2707      2683.2073    
    615000  -1810.2116      9.1385501     -1801.0731      288.56694      3637.828       2683.2073    
    616000  -1810.113       9.0875225     -1801.0254      286.95565      3617.5152      2683.2073    
    617000  -1810.7504      7.9161054     -1802.8343      249.96594      3151.2034      2683.2073    
    618000  -1810.5429      8.0587408     -1802.4841      254.46993      3207.983       2683.2073    
    619000  -1810.8052      9.0413271     -1801.7638      285.49694      3599.126       2683.2073    
    620000  -1810.7429      9.8559463     -1800.887       311.22008      3923.4055      2683.2073    
    621000  -1811.4869      9.2355016     -1802.2514      291.62837      3676.422       2683.2073    
    622000  -1811.7026      8.4196376     -1803.283       265.86592      3351.647       2683.2073    
    623000  -1812.1517      8.9121059     -1803.2396      281.41654      3547.6863      2683.2073    
    624000  -1810.9453      8.484706      -1802.4605      267.92058      3377.5491      2683.2073    
    625000  -1810.7439      8.0149473     -1802.729       253.08706      3190.5499      2683.2073    
    626000  -1811.6902      8.7207433     -1802.9695      275.3739       3471.5096      2683.2073    
    627000  -1811.604       10.021806     -1801.5822      316.4574       3989.43        2683.2073    
    628000  -1810.7958      8.3438665     -1802.4519      263.47331      3321.4844      2683.2073    
    629000  -1812.2768      8.8503498     -1803.4264      279.46647      3523.1027      2683.2073    
    630000  -1812.011       8.6763562     -1803.3346      273.9723       3453.8402      2683.2073    
    631000  -1812.203       8.8679908     -1803.3351      280.02352      3530.1252      2683.2073    
    632000  -1811.1826      9.6598523     -1801.5228      305.02804      3845.3454      2683.2073    
    633000  -1810.5754      9.9635573     -1800.6118      314.6181       3966.2428      2683.2073    
    634000  -1812.3631      9.2513528     -1803.1117      292.1289       3682.732       2683.2073    
    635000  -1812.2208      8.8762404     -1803.3446      280.28402      3533.4091      2683.2073    
    636000  -1811.7729      8.0419954     -1803.7309      253.94116      3201.3171      2683.2073    
    637000  -1811.573       8.6123499     -1802.9606      271.95118      3428.3609      2683.2073    
    638000  -1810.8614      9.2336012     -1801.6278      291.56836      3675.6655      2683.2073    
    639000  -1811.0841      9.4697946     -1801.6143      299.02661      3769.6882      2683.2073    
    640000  -1810.8919      8.7739006     -1802.118       277.05244      3492.6702      2683.2073    
    641000  -1810.4139      9.2859374     -1801.1279      293.22097      3696.4992      2683.2073    
    642000  -1811.6581      8.8311345     -1802.827       278.85971      3515.4536      2683.2073    
    643000  -1812.0579      8.0272432     -1804.0306      253.47533      3195.4446      2683.2073    
    644000  -1811.8488      8.663178      -1803.1856      273.55617      3448.5943      2683.2073    
    645000  -1812.3029      9.4108762     -1802.892       297.16615      3746.2343      2683.2073    
    646000  -1811.6384      8.5517547     -1803.0867      270.03777      3404.2395      2683.2073    
    647000  -1811.8244      9.5015344     -1802.3229      300.02885      3782.323       2683.2073    
    648000  -1812.6473      8.4061215     -1804.2412      265.43913      3346.2666      2683.2073    
    649000  -1811.6585      8.0451642     -1803.6133      254.04122      3202.5785      2683.2073    
    650000  -1811.52        9.2808439     -1802.2391      293.06014      3694.4717      2683.2073    
    651000  -1812.5018      8.5435295     -1803.9582      269.77804      3400.9652      2683.2073    
    652000  -1811.2013      8.2645492     -1802.9368      260.96872      3289.9102      2683.2073    
    653000  -1811.8079      8.8904024     -1802.9175      280.73121      3539.0467      2683.2073    
    654000  -1811.5416      9.1090334     -1802.4326      287.6349       3626.0782      2683.2073    
    655000  -1810.0801      8.8056663     -1801.2744      278.05551      3505.3153      2683.2073    
    656000  -1810.7545      8.3675268     -1802.387       264.22043      3330.903       2683.2073    
    657000  -1810.9874      9.0828318     -1801.9045      286.80753      3615.648       2683.2073    
    658000  -1812.2003      8.830893      -1803.3694      278.85209      3515.3575      2683.2073    
    659000  -1811.9226      9.2748569     -1802.6477      292.87108      3692.0884      2683.2073    
    660000  -1811.3332      8.9566741     -1802.3765      282.82386      3565.4278      2683.2073    
    661000  -1812.2178      9.3589801     -1802.8588      295.52743      3725.5757      2683.2073    
    662000  -1811.8047      9.1558794     -1802.6488      289.11414      3644.7264      2683.2073    
    663000  -1811.4848      9.4381685     -1802.0466      298.02795      3757.0986      2683.2073    
    664000  -1811.4635      9.0343834     -1802.4291      285.27768      3596.3619      2683.2073    
    665000  -1810.8284      8.4548616     -1802.3735      266.97819      3365.6688      2683.2073    
    666000  -1811.2111      8.9449318     -1802.2661      282.45308      3560.7534      2683.2073    
    667000  -1811.3348      8.8537265     -1802.4811      279.5731       3524.4469      2683.2073    
    668000  -1810.9333      8.6508441     -1802.2824      273.1667       3443.6845      2683.2073    
    669000  -1810.8239      8.8668771     -1801.957       279.98835      3529.6818      2683.2073    
    670000  -1811.9692      8.7077982     -1803.2614      274.96514      3466.3565      2683.2073    
    671000  -1811.3524      8.1506271     -1803.2018      257.37141      3244.5606      2683.2073    
    672000  -1810.3173      9.736754      -1800.5806      307.45636      3875.9581      2683.2073    
    673000  -1810.1222      8.6782839     -1801.4439      274.03317      3454.6076      2683.2073    
    674000  -1811.2363      9.7391232     -1801.4972      307.53117      3876.9012      2683.2073    
    675000  -1810.4114      8.4962033     -1801.9152      268.28363      3382.1259      2683.2073    
    676000  -1812.0698      8.9611303     -1803.1086      282.96458      3567.2017      2683.2073    
    677000  -1811.4919      9.0845387     -1802.4074      286.86143      3616.3275      2683.2073    
    678000  -1811.022       9.3402481     -1801.6818      294.93593      3718.119       2683.2073    
    679000  -1810.4889      10.674698     -1799.8142      337.0737       4249.3301      2683.2073    
    680000  -1811.9451      8.7543333     -1803.1907      276.43457      3484.8809      2683.2073    
    681000  -1810.8079      8.5879575     -1802.2199      271.18094      3418.6509      2683.2073    
    682000  -1810.6513      8.8885358     -1801.7627      280.67227      3538.3036      2683.2073    
    683000  -1811.2508      8.3970344     -1802.8538      265.15218      3342.6492      2683.2073    
    684000  -1812.381       8.9510391     -1803.4299      282.64593      3563.1846      2683.2073    
    685000  -1810.846       8.1686671     -1802.6773      257.94106      3251.7419      2683.2073    
    686000  -1811.7876      8.8387195     -1802.9488      279.09922      3518.473       2683.2073    
    687000  -1811.3066      8.6810872     -1802.6255      274.12169      3455.7235      2683.2073    
    688000  -1810.0038      8.109405      -1801.8944      256.06974      3228.1511      2683.2073    
    689000  -1810.4728      8.9250231     -1801.5478      281.82442      3552.8283      2683.2073    
    690000  -1811.8196      9.1355829     -1802.684       288.47324      3636.6469      2683.2073    
    691000  -1811.4027      8.760332      -1802.6424      276.62399      3487.2689      2683.2073    
    692000  -1811.1         8.4953846     -1802.6047      268.25778      3381.7999      2683.2073    
    693000  -1810.2765      8.3741493     -1801.9024      264.42954      3333.5392      2683.2073    
    694000  -1812.5387      8.2614975     -1804.2772      260.87235      3288.6954      2683.2073    
    695000  -1811.8509      9.5975093     -1802.2533      303.05944      3820.5282      2683.2073    
    696000  -1812.1519      9.1512196     -1803.0007      288.967        3642.8715      2683.2073    
    697000  -1812.1191      9.1477933     -1802.9713      288.85881      3641.5075      2683.2073    
    698000  -1810.9111      9.8345392     -1801.0766      310.54411      3914.8839      2683.2073    
    699000  -1811.3961      10.453        -1800.9431      330.07316      4161.0775      2683.2073    
    700000  -1811.5901      9.6133928     -1801.9767      303.56099      3826.851       2683.2073    
    701000  -1811.2691      8.665777      -1802.6033      273.63824      3449.6289      2683.2073    
    702000  -1810.766       9.077282      -1801.6887      286.63228      3613.4387      2683.2073    
    703000  -1812.4459      9.0098212     -1803.4361      284.50208      3586.5843      2683.2073    
    704000  -1811.2963      9.2347852     -1802.0615      291.60575      3676.1368      2683.2073    
    705000  -1811.152       9.0285448     -1802.1234      285.09332      3594.0377      2683.2073    
    706000  -1811.8489      8.0086717     -1803.8402      252.8889       3188.0517      2683.2073    
    707000  -1811.5396      8.9778369     -1802.5618      283.49212      3573.8521      2683.2073    
    708000  -1810.312       9.1611888     -1801.1508      289.2818       3646.8399      2683.2073    
    709000  -1811.8467      9.0408005     -1802.8059      285.48031      3598.9164      2683.2073    
    710000  -1811.7604      8.9297084     -1802.8307      281.97237      3554.6934      2683.2073    
    711000  -1810.487       9.0481669     -1801.4388      285.71292      3601.8488      2683.2073    
    712000  -1810.2174      8.449987      -1801.7675      266.82426      3363.7283      2683.2073    
    713000  -1810.301       9.3646278     -1800.9364      295.70577      3727.8239      2683.2073    
    714000  -1811.9551      9.8380943     -1802.117       310.65637      3916.2991      2683.2073    
    715000  -1811.512       9.0168618     -1802.4951      284.7244       3589.387       2683.2073    
    716000  -1811.779       8.7614638     -1803.0176      276.65973      3487.7194      2683.2073    
    717000  -1811.6442      9.0158877     -1802.6283      284.69364      3588.9992      2683.2073    
    718000  -1810.3449      9.114744      -1801.2301      287.81522      3628.3514      2683.2073    
    719000  -1811.0989      9.8186871     -1801.2802      310.04355      3908.5736      2683.2073    
    720000  -1811.8972      8.7584096     -1803.1388      276.56329      3486.5036      2683.2073    
    721000  -1811.0181      9.7827113     -1801.2354      308.90754      3894.2525      2683.2073    
    722000  -1810.8516      7.913529      -1802.9381      249.88459      3150.1778      2683.2073    
    723000  -1812.5968      9.2912814     -1803.3055      293.38972      3698.6266      2683.2073    
    724000  -1810.9027      8.6410864     -1802.2617      272.85859      3439.8002      2683.2073    
    725000  -1811.0205      9.5100325     -1801.5105      300.2972       3785.7059      2683.2073    
    726000  -1810.9758      8.8789563     -1802.0969      280.36978      3534.4903      2683.2073    
    727000  -1811.1045      8.8516341     -1802.2528      279.50703      3523.614       2683.2073    
    728000  -1810.821       8.998092      -1801.8229      284.13171      3581.9152      2683.2073    
    729000  -1811.2807      8.4172197     -1802.8635      265.78957      3350.6845      2683.2073    
[...]
   1631000  -1810.8585      8.8512098     -1802.0073      279.49363      3523.4451      2683.2073    
   1632000  -1810.671       9.1849361     -1801.4861      290.03166      3656.2931      2683.2073    
   1633000  -1811.643       8.8808314     -1802.7621      280.42899      3535.2367      2683.2073    
   1634000  -1811.859       8.1549222     -1803.7041      257.50704      3246.2704      2683.2073    
   1635000  -1810.5751      9.1347988     -1801.4403      288.44848      3636.3347      2683.2073    
   1636000  -1811.2136      9.6617315     -1801.5519      305.08738      3846.0935      2683.2073    
   1637000  -1811.134       8.9362335     -1802.1978      282.17841      3557.2909      2683.2073    
   1638000  -1811.3939      8.3621384     -1803.0318      264.05028      3328.758       2683.2073    
   1639000  -1810.8655      10.056438     -1800.8091      317.55097      4003.2162      2683.2073    
   1640000  -1810.3594      9.1923769     -1801.1671      290.26662      3659.2551      2683.2073    
   1641000  -1811.5499      8.9214601     -1802.6285      281.71191      3551.4099      2683.2073    
   1642000  -1811.7772      8.428295      -1803.349       266.1393       3355.0933      2683.2073    
   1643000  -1811.1279      8.6694772     -1802.4584      273.75508      3451.1019      2683.2073    
   1644000  -1811.8831      9.51645       -1802.3667      300.49984      3788.2606      2683.2073    
   1645000  -1811.5188      9.0048896     -1802.5139      284.34636      3584.6211      2683.2073    
   1646000  -1811.7631      8.911934      -1802.8511      281.41111      3547.6178      2683.2073    
   1647000  -1811.5625      8.7591028     -1802.8034      276.58518      3486.7796      2683.2073    
   1648000  -1811.8027      8.2360794     -1803.5666      260.06973      3278.577       2683.2073    
   1649000  -1811.6447      9.5764847     -1802.0682      302.39555      3812.1588      2683.2073    
   1650000  -1812.0822      8.5823601     -1803.4998      271.00419      3416.4227      2683.2073    
   1651000  -1811.9558      8.0775618     -1803.8783      255.06423      3215.4751      2683.2073    
   1652000  -1812.7555      9.6005736     -1803.1549      303.1562       3821.7481      2683.2073    
   1653000  -1811.8843      8.3779755     -1803.5063      264.55036      3335.0623      2683.2073    
   1654000  -1812.4016      9.1407127     -1803.2608      288.63523      3638.6889      2683.2073    
   1655000  -1811.7671      8.952567      -1802.8145      282.69417      3563.7928      2683.2073    
   1656000  -1812.6084      8.8437002     -1803.7647      279.2565       3520.4557      2683.2073    
   1657000  -1811.3993      9.7409542     -1801.6583      307.58898      3877.63        2683.2073    
   1658000  -1810.4972      9.2389107     -1801.2582      291.73601      3677.7791      2683.2073    
   1659000  -1811.6327      8.1701573     -1803.4626      257.98811      3252.3351      2683.2073    
   1660000  -1811.9706      8.9999797     -1802.9707      284.19132      3582.6667      2683.2073    
   1661000  -1810.8401      9.0298076     -1801.8103      285.13319      3594.5404      2683.2073    
   1662000  -1812.5074      9.4781147     -1803.0293      299.28933      3773.0002      2683.2073    
   1663000  -1811.2799      9.1304662     -1802.1494      288.31168      3634.61        2683.2073    
   1664000  -1812.1465      9.3504077     -1802.796       295.25674      3722.1633      2683.2073    
   1665000  -1812.3365      9.0616124     -1803.2749      286.13749      3607.2011      2683.2073    
   1666000  -1811.5199      8.7242657     -1802.7957      275.48513      3472.9118      2683.2073    
   1667000  -1811.2609      8.1284296     -1803.1324      256.67048      3235.7243      2683.2073    
   1668000  -1810.8941      9.8947433     -1800.9993      312.44516      3938.8496      2683.2073    
   1669000  -1811.3254      9.6522698     -1801.6731      304.78861      3842.327       2683.2073    
   1670000  -1810.2945      9.7300736     -1800.5644      307.24541      3873.2987      2683.2073    
   1671000  -1809.9931      8.0816723     -1801.9115      255.19403      3217.1114      2683.2073    
   1672000  -1811.7564      8.9533257     -1802.8031      282.71813      3564.0949      2683.2073    
   1673000  -1811.4025      9.1125756     -1802.29        287.74675      3627.4883      2683.2073    
   1674000  -1811.3721      9.706395      -1801.6657      306.49771      3863.8729      2683.2073    
   1675000  -1812.1287      8.3126619     -1803.816       262.48796      3309.0626      2683.2073    
   1676000  -1811.8693      8.748813      -1803.1205      276.26026      3482.6835      2683.2073    
   1677000  -1810.7906      9.2583378     -1801.5323      292.34946      3685.5125      2683.2073    
   1678000  -1812.0575      8.3903589     -1803.6671      264.94139      3339.9919      2683.2073    
   1679000  -1810.1081      8.7832234     -1801.3249      277.34683      3496.3814      2683.2073    
   1680000  -1810.8433      8.7051908     -1802.1381      274.8828       3465.3186      2683.2073    
   1681000  -1811.0227      9.3675186     -1801.6552      295.79705      3728.9747      2683.2073    
   1682000  -1811.4356      7.788193      -1803.6474      245.92687      3100.2847      2683.2073    
   1683000  -1811.8686      9.4848667     -1802.3838      299.50254      3775.688       2683.2073    
   1684000  -1809.7006      9.1580871     -1800.5425      289.18386      3645.6052      2683.2073    
   1685000  -1811.2867      9.2561059     -1802.0306      292.27899      3684.6241      2683.2073    
   1686000  -1811.2138      8.7230157     -1802.4908      275.44566      3472.4142      2683.2073    
   1687000  -1810.8524      8.8579894     -1801.9944      279.70771      3526.1438      2683.2073    
   1688000  -1811.695       9.4392816     -1802.2558      298.0631       3757.5417      2683.2073    
   1689000  -1811.1926      9.0891834     -1802.1034      287.00809      3618.1764      2683.2073    
   1690000  -1811.1683      8.8254        -1802.3429      278.67863      3513.1708      2683.2073    
   1691000  -1811.6788      9.0763444     -1802.6025      286.60268      3613.0655      2683.2073    
   1692000  -1811.1253      8.7467793     -1802.3785      276.19604      3481.8739      2683.2073    
   1693000  -1811.8062      9.5682572     -1802.238       302.13575      3808.8837      2683.2073    
   1694000  -1810.8978      8.2277704     -1802.67        259.80735      3275.2694      2683.2073    
   1695000  -1812.6288      8.5080745     -1804.1207      268.65848      3386.8515      2683.2073    
   1696000  -1811.3693      8.5209825     -1802.8483      269.06608      3391.9898      2683.2073    
   1697000  -1810.4993      8.2413516     -1802.2579      260.23621      3280.6758      2683.2073    
   1698000  -1811.9359      8.3075176     -1803.6284      262.32552      3307.0148      2683.2073    
   1699000  -1810.4032      8.1579788     -1802.2452      257.60355      3247.4872      2683.2073    
   1700000  -1811.8125      8.8732507     -1802.9393      280.18961      3532.219       2683.2073    
   1701000  -1811.1924      8.9415327     -1802.2508      282.34574      3559.4004      2683.2073    
   1702000  -1812.3972      8.2692882     -1804.1279      261.11836      3291.7966      2683.2073    
   1703000  -1812.2579      7.8605151     -1804.3974      248.21058      3129.0743      2683.2073    
   1704000  -1811.3707      8.999593      -1802.3711      284.17911      3582.5127      2683.2073    
   1705000  -1812.1044      8.059471      -1804.045       254.49298      3208.2737      2683.2073    
   1706000  -1811.186       9.861886      -1801.3241      311.40763      3925.77        2683.2073    
   1707000  -1810.7939      8.8455841     -1801.9483      279.31599      3521.2056      2683.2073    
   1708000  -1810.6317      8.838718      -1801.793       279.09918      3518.4724      2683.2073    
   1709000  -1811.6588      7.9685037     -1803.6903      251.62052      3172.0619      2683.2073    
   1710000  -1810.4539      8.8227414     -1801.6312      278.59468      3512.1125      2683.2073    
   1711000  -1811.4426      9.3888389     -1802.0537      296.47028      3737.4618      2683.2073    
   1712000  -1810.5395      9.1505495     -1801.389       288.94584      3642.6047      2683.2073    
   1713000  -1811.317       8.9377794     -1802.3792      282.22723      3557.9062      2683.2073    
   1714000  -1810.763       8.880857      -1801.8821      280.42979      3535.2469      2683.2073    
   1715000  -1811.7664      9.5148467     -1802.2515      300.44921      3787.6223      2683.2073    
   1716000  -1810.7584      8.78264       -1801.9758      277.32841      3496.1492      2683.2073    
   1717000  -1810.6289      8.5495668     -1802.0794      269.96868      3403.3685      2683.2073    
   1718000  -1810.7825      8.4230945     -1802.3594      265.97508      3353.0231      2683.2073    
   1719000  -1811.4796      8.1085051     -1803.3711      256.04133      3227.7929      2683.2073    
   1720000  -1810.1564      9.6792169     -1800.4772      305.63951      3853.054       2683.2073    
   1721000  -1810.8751      8.6665255     -1802.2086      273.66187      3449.9269      2683.2073    
   1722000  -1810.0906      8.9259247     -1801.1646      281.85289      3553.1872      2683.2073    
   1723000  -1810.1404      8.4438507     -1801.6965      266.6305       3361.2856      2683.2073    
   1724000  -1811.142       8.1408544     -1803.0012      257.06282      3240.6704      2683.2073    
   1725000  -1810.3338      9.0728203     -1801.261       286.4914       3611.6626      2683.2073    
   1726000  -1810.6077      9.4674124     -1801.1402      298.95139      3768.7399      2683.2073    
   1727000  -1811.1262      8.9814899     -1802.1447      283.60747      3575.3063      2683.2073    
   1728000  -1811.6611      9.3802227     -1802.2809      296.19821      3734.0319      2683.2073    
   1729000  -1811.3468      9.3757832     -1801.971       296.05802      3732.2646      2683.2073    
   1730000  -1811.9422      8.7652135     -1803.177       276.77813      3489.2121      2683.2073    
   1731000  -1812.1377      9.0206449     -1803.1171      284.84386      3590.8929      2683.2073    
   1732000  -1810.7589      8.8800062     -1801.8789      280.40293      3534.9082      2683.2073    
   1733000  -1810.3093      9.010524      -1801.2988      284.52427      3586.8641      2683.2073    
   1734000  -1811.7766      8.6941001     -1803.0825      274.53259      3460.9036      2683.2073    
   1735000  -1810.8496      8.4878753     -1802.3617      268.02066      3378.8107      2683.2073    
   1736000  -1811.0044      8.9491232     -1802.0553      282.58543      3562.4219      2683.2073    
   1737000  -1811.3637      8.7572247     -1802.6065      276.52587      3486.0319      2683.2073    
   1738000  -1811.8638      9.7452738     -1802.1186      307.72538      3879.3496      2683.2073    
   1739000  -1810.3557      9.1941738     -1801.1615      290.32336      3659.9705      2683.2073    
   1740000  -1811.332       9.9157971     -1801.4162      313.10998      3947.2306      2683.2073    
   1741000  -1811.5129      8.2151895     -1803.2977      259.41009      3270.2613      2683.2073    
   1742000  -1810.6773      9.0089802     -1801.6683      284.47553      3586.2495      2683.2073    
   1743000  -1810.5278      8.1895336     -1802.3382      258.59995      3260.0483      2683.2073    
   1744000  -1809.9169      8.1561064     -1801.7608      257.54443      3246.7418      2683.2073    
   1745000  -1810.7835      9.1054453     -1801.678       287.52159      3624.6499      2683.2073    
   1746000  -1810.7931      9.193591      -1801.5995      290.30496      3659.7385      2683.2073    
   1747000  -1810.8399      8.4990824     -1802.3408      268.37454      3383.272       2683.2073    
   1748000  -1810.4078      8.9504002     -1801.4574      282.62575      3562.9303      2683.2073    
   1749000  -1809.9042      9.2954748     -1800.6088      293.52213      3700.2959      2683.2073    
   1750000  -1810.5049      9.6819111     -1800.8229      305.72459      3854.1264      2683.2073    
   1751000  -1810.3561      8.6720596     -1801.684       273.83662      3452.1299      2683.2073    
   1752000  -1811.2019      8.6067593     -1802.5951      271.77464      3426.1354      2683.2073    
   1753000  -1810.0429      9.13139       -1800.9115      288.34085      3634.9778      2683.2073    
   1754000  -1810.9025      8.9794706     -1801.923       283.54371      3574.5025      2683.2073    
   1755000  -1810.1978      9.2091198     -1800.9887      290.79531      3665.9201      2683.2073    
   1756000  -1811.6331      8.6169209     -1803.0162      272.09551      3430.1805      2683.2073    
   1757000  -1812.4081      8.7300955     -1803.678       275.66922      3475.2325      2683.2073    
   1758000  -1811.7916      9.6827421     -1802.1088      305.75083      3854.4573      2683.2073    
   1759000  -1811.4394      9.7294538     -1801.71        307.22584      3873.052       2683.2073    
   1760000  -1810.7948      8.6414829     -1802.1533      272.87111      3439.958       2683.2073    
   1761000  -1811.9236      9.7929009     -1802.1307      309.2293       3898.3087      2683.2073    
   1762000  -1810.0776      8.8469822     -1801.2306      279.36013      3521.7622      2683.2073    
   1763000  -1811.5439      9.5552883     -1801.9886      301.72623      3803.7211      2683.2073    
   1764000  -1810.1836      8.7770207     -1801.4066      277.15097      3493.9123      2683.2073    
   1765000  -1811.6145      8.8514367     -1802.7631      279.50079      3523.5354      2683.2073    
   1766000  -1810.8426      8.4384056     -1802.4042      266.45856      3359.1181      2683.2073    
   1767000  -1810.8039      9.5901162     -1801.2138      302.82599      3817.5852      2683.2073    
   1768000  -1811.1665      8.05621       -1803.1103      254.39001      3206.9756      2683.2073    
   1769000  -1811.3951      9.0054313     -1802.3896      284.36346      3584.8368      2683.2073    
   1770000  -1810.8239      8.5832715     -1802.2406      271.03297      3416.7855      2683.2073    
   1771000  -1811.7545      9.2679857     -1802.4865      292.65411      3689.3531      2683.2073    
   1772000  -1810.3429      8.8222317     -1801.5206      278.57859      3511.9096      2683.2073    
   1773000  -1811.5075      8.3610561     -1803.1465      264.0161       3328.3272      2683.2073    
   1774000  -1812.2402      8.0763125     -1804.1639      255.02479      3214.9779      2683.2073    
   1775000  -1811.4634      8.7679568     -1802.6955      276.86476      3490.3041      2683.2073    
   1776000  -1811.2348      9.3655101     -1801.8693      295.73363      3728.1752      2683.2073    
   1777000  -1811.4316      9.514496      -1801.9171      300.43814      3787.4827      2683.2073    
   1778000  -1811.4754      9.0960592     -1802.3793      287.22521      3620.9135      2683.2073    
   1779000  -1812.3601      9.0528388     -1803.3073      285.86044      3603.7085      2683.2073    
   1780000  -1811.5655      8.5963343     -1802.9692      271.44545      3421.9855      2683.2073    
   1781000  -1812.4871      10.07364      -1802.4135      318.09418      4010.0641      2683.2073    
   1782000  -1811.5348      9.1367021     -1802.3981      288.50858      3637.0924      2683.2073    
   1783000  -1811.0856      8.7364261     -1802.3491      275.86912      3477.7525      2683.2073    
   1784000  -1810.9658      8.8136561     -1802.1521      278.3078       3508.4959      2683.2073    
   1785000  -1810.66        9.0112719     -1801.6487      284.54789      3587.1618      2683.2073    
   1786000  -1812.036       9.3499324     -1802.6861      295.24173      3721.9741      2683.2073    
   1787000  -1810.5955      8.6098967     -1801.9856      271.87371      3427.3844      2683.2073    
   1788000  -1811.6114      8.6361506     -1802.9753      272.70273      3437.8354      2683.2073    
   1789000  -1810.6338      9.0445258     -1801.5893      285.59794      3600.3993      2683.2073    
   1790000  -1810.5032      9.1519583     -1801.3513      288.99033      3643.1655      2683.2073    
   1791000  -1811.5588      9.1530752     -1802.4057      289.0256       3643.6101      2683.2073    
   1792000  -1812.1882      9.1537845     -1803.0344      289.04799      3643.8925      2683.2073    
   1793000  -1811.0491      9.08743       -1801.9617      286.95273      3617.4784      2683.2073    
   1794000  -1810.9518      8.8228559     -1802.129       278.5983       3512.1581      2683.2073    
   1795000  -1811.7579      9.389342      -1802.3686      296.48617      3737.662       2683.2073    
   1796000  -1810.3279      9.3042623     -1801.0237      293.79961      3703.7939      2683.2073    
   1797000  -1812.6089      8.9040766     -1803.7048      281.163        3544.49        2683.2073    
   1798000  -1811.4708      9.0982378     -1802.3726      287.294        3621.7807      2683.2073    
   1799000  -1810.6976      8.7849866     -1801.9126      277.40251      3497.0833      2683.2073    
   1800000  -1811.7096      8.3273859     -1803.3822      262.9529       3314.9239      2683.2073    
   1801000  -1811.4149      8.0921685     -1803.3228      255.52547      3221.2897      2683.2073    
   1802000  -1809.6433      8.5343657     -1801.109       269.48868      3397.3174      2683.2073    
   1803000  -1810.0374      9.2897793     -1800.7476      293.34229      3698.0286      2683.2073    
   1804000  -1811.1734      9.0408596     -1802.1326      285.48218      3598.9399      2683.2073    
   1805000  -1810.9655      8.4340119     -1802.5315      266.31982      3357.369       2683.2073    
   1806000  -1810.9962      8.9687309     -1802.0275      283.20458      3570.2273      2683.2073    
   1807000  -1811.3174      9.0020384     -1802.3154      284.25633      3583.4862      2683.2073    
   1808000  -1811.2046      9.1352383     -1802.0694      288.46236      3636.5097      2683.2073    
   1809000  -1811.2491      8.5944069     -1802.6547      271.38459      3421.2183      2683.2073    
   1810000  -1811.4566      6.9870032     -1804.4696      220.62779      2781.3511      2683.2073    
   1811000  -1810.9796      9.463994      -1801.5156      298.84344      3767.3791      2683.2073    
   1812000  -1811.4275      9.1394697     -1802.2881      288.59598      3638.1941      2683.2073    
   1813000  -1811.4816      8.6248422     -1802.8568      272.34565      3433.3338      2683.2073    
   1814000  -1811.7413      8.8501085     -1802.8912      279.45885      3523.0067      2683.2073    
   1815000  -1813.6519      9.3568188     -1804.295       295.45919      3724.7154      2683.2073    
   1816000  -1811.643       9.3367401     -1802.3063      294.82516      3716.7225      2683.2073    
   1817000  -1812.0141      8.6156446     -1803.3985      272.05521      3429.6725      2683.2073    
   1818000  -1810.4874      8.8481134     -1801.6393      279.39585      3522.2125      2683.2073    
   1819000  -1811.3667      9.0171011     -1802.3496      284.73196      3589.4823      2683.2073    
   1820000  -1811.4052      8.8096968     -1802.5955      278.18278      3506.9198      2683.2073    
   1821000  -1811.7032      8.9422757     -1802.761       282.3692       3559.6961      2683.2073    
   1822000  -1812.2302      8.7722506     -1803.458       277.00034      3492.0134      2683.2073    
   1823000  -1811.8298      9.2497106     -1802.5801      292.07704      3682.0783      2683.2073    
   1824000  -1811.8932      8.6892728     -1803.2039      274.38016      3458.982       2683.2073    
   1825000  -1811.3229      9.1039292     -1802.219       287.47372      3624.0463      2683.2073    
   1826000  -1810.9116      9.4171784     -1801.4944      297.36515      3748.743       2683.2073    
