246
Lattice="10.140377178 0.0 0.0 0.0 8.78182424 0.0 0.0 0.0 30.131127158" Properties=species:S:1:pos:R:3:initial_charges:R:1:forces:R:3 stress="0.002301356761877423 0.0012635061414073034 0.00271192947368715 0.0012635061414073034 0.00066498910679898 0.0004914314625355442 0.00271192947368715 0.0004914314625355442 -0.000938560693295569" free_energy=-1797.03461268 energy=-1813.4746999728673 pbc="T T T"
Cu       7.00278000       1.18330000       9.76696000      -0.07617900      -0.29715200      -0.32922200       0.46434300
Cu       9.54539000       1.22935000       9.82430000      -0.07669500      -0.77762900      -0.50372100      -0.21852300
Cu       1.72310000       1.06762000       9.93655000      -0.14744500       1.24405800       0.62757500      -0.48669700
Cu       4.41783000       1.12399000       9.75602000      -0.11811700      -0.27010800       0.22120600       0.10372400
Cu       8.20128000       3.32020000       9.94534000      -0.06973300       0.04677300       0.33777300      -0.21379800
Cu       0.55595000       3.38634000       9.88528000      -0.01831300       0.64406100      -0.19997500      -0.08536600
Cu       3.15903000       3.35296000       9.68262000      -0.10812600      -0.01009600      -0.10500900       0.93283000
Cu       5.73231000       3.50233000       9.87239000      -0.09705700      -0.57657900      -0.84680300      -0.25113800
Cu       9.60144000       5.51325000       9.92491000      -0.10926600      -1.50765500       0.39125100      -0.35827100
Cu       1.76996000       5.61187000       9.90614000      -0.07105700       1.20340200      -0.40433200      -0.22576100
Cu       4.41500000       5.58135000       9.96801000      -0.11287700      -0.36187700      -0.33420500      -0.82381000
Cu       6.90816000       5.52546000       9.59537000      -0.06278200       0.52088400       0.52032100       0.80415300
Cu       0.62597000       7.70243000       9.88492000      -0.09315300      -0.37098000       0.17955900      -0.13664700
Cu       3.13523000       7.79481000       9.96364000      -0.11300400      -0.04767500      -0.16187200      -0.27884600
Cu       5.62162000       7.73693000       9.81621000      -0.14753900       0.48460900       0.22998600       0.05072400
Cu       8.22324000       7.73468000       9.77857000      -0.09231600      -0.16181400      -0.04971500       0.36045100
Cu       5.55739000       1.85807000      11.75190000      -0.00845000       0.82977400      -0.40940900       0.62823000
Cu       8.31000000       1.77182000      11.90130000      -0.00651100      -1.14355100       0.50343000       0.24978700
Cu       0.55921000       1.93761000      11.87170000       0.00144500       0.61659000      -0.23840600       0.70234300
Cu       3.09745000       1.84144000      11.95340000      -0.00355300      -0.01657500      -0.13309800      -0.36106200
Cu       6.91986000       4.02674000      11.91150000      -0.00333200       0.25158100       0.03254100       0.33216500
Cu       9.54248000       4.06286000      11.89500000      -0.01054400      -0.63355500      -0.05688400       0.64587500
Cu       1.91477000       4.10219000      11.96000000      -0.00044200      -0.15541600      -0.54000100      -0.31090000
Cu       4.37970000       3.94952000      11.96130000      -0.00675900       0.07013100       0.58142900      -0.20473300
Cu       8.18268000       6.21198000      11.94130000       0.00277400       0.15555500      -0.03213000      -0.32585200
Cu       0.56157000       6.20157000      11.95420000      -0.00120900       0.24243600       0.60189900       0.36451100
Cu       3.12561000       6.17738000      11.86780000      -0.01379400       0.03564000       0.55563100       0.78932900
Cu       5.68759000       6.24686000      11.83740000       0.00199400       0.10372800      -0.34187200       0.60884900
Cu       9.48122000       8.50212000      11.85620000       0.00625800      -0.08053700      -0.70606300       0.27867900
Cu       1.78589000       8.47792000      11.94220000      -0.01375900       0.47661400      -0.36697900       0.39463200
Cu       4.41501000       8.38154000      12.01350000      -0.00785500      -0.13892700       0.29583900      -0.42044900
Cu       6.94545000       8.32585000      11.97960000      -0.01458800       0.04255200       0.80138800      -0.45509800
Cu       5.70396000       0.36591000      14.03060000       0.00501000       0.02263700       0.13507600      -0.14899700
Cu       8.23906000       0.36591000      14.03060000      -0.05038600       0.01065100      -0.00330800      -0.13947600
Cu       0.63377000       0.36591000      14.03060000      -0.01921100      -0.12292100       0.09466200      -0.12310100
Cu       3.16887000       0.36591000      14.03060000      -0.02346200      -0.08110800      -0.00428400      -0.03248800
Cu       6.97151000       2.56137000      14.03060000       0.00482400      -0.04791400      -0.08172800      -0.36694300
Cu       9.50660000       2.56137000      14.03060000      -0.04649200      -0.04206200       0.01794000      -0.15687900
Cu       1.90132000       2.56137000      14.03060000      -0.01569200      -0.10045800       0.00573000      -0.09660300
Cu       4.43642000       2.56137000      14.03060000      -0.01621600       0.05002300      -0.11913900      -0.08046500
Cu       8.23906000       4.75682000      14.03060000       0.00707300      -0.00861700      -0.07028700      -0.18998700
Cu       0.63377000       4.75682000      14.03060000      -0.02107200      -0.03438100      -0.02982800       0.02683300
Cu       3.16887000       4.75682000      14.03060000      -0.04645800       0.03906800       0.05364700      -0.01149700
Cu       5.70396000       4.75682000      14.03060000      -0.02376100      -0.02970500       0.03618600      -0.24122400
Cu       9.50660000       6.95228000      14.03060000      -0.00774800      -0.04075800       0.08403000      -0.18109800
Cu       1.90132000       6.95228000      14.03060000       0.00859900       0.02147500      -0.01611100      -0.22184600
Cu       4.43642000       6.95228000      14.03060000      -0.01715300      -0.01911400      -0.18020100      -0.09827900
Cu       6.97151000       6.95228000      14.03060000      -0.04202000      -0.09119100      -0.13151400       0.00871600
Cu       6.97151000       1.09773000      16.10050000      -0.01490400      -0.04501700      -0.11574900      -0.07853400
Cu       9.50660000       1.09773000      16.10050000      -0.01736600       0.14586100      -0.02308000      -0.00339400
Cu       1.90132000       1.09773000      16.10050000      -0.04711700       0.03240800       0.01192900      -0.10423400
Cu       4.43642000       1.09773000      16.10050000       0.00649000       0.02784100       0.14408700       0.07561400
Cu       8.23906000       3.29318000      16.10050000       0.01305700       0.07179300       0.09110100       0.18199200
Cu       0.63377000       3.29318000      16.10050000      -0.02206800       0.04468100       0.06980700       0.19976600
Cu       3.16887000       3.29318000      16.10050000      -0.01742500      -0.13336200      -0.09167100       0.01963300
Cu       5.70396000       3.29318000      16.10050000      -0.04419600       0.10263500      -0.08600000      -0.20451800
Cu       9.50660000       5.48864000      16.10050000       0.00784100       0.00243500      -0.17057600       0.08064000
Cu       1.90132000       5.48864000      16.10050000      -0.01921300       0.02163700      -0.02382500       0.06293800
Cu       4.43642000       5.48864000      16.10050000      -0.03903800       0.15156900      -0.06256200      -0.22375500
Cu       6.97151000       5.48864000      16.10050000      -0.02229200      -0.08822500      -0.00452900      -0.12435700
Cu       0.63377000       7.68410000      16.10050000       0.01082500      -0.00061000       0.14408700       0.02951400
Cu       3.16887000       7.68410000      16.10050000      -0.00968000       0.03397000       0.03963200      -0.00008100
Cu       5.70396000       7.68410000      16.10050000      -0.00760200       0.07661700       0.05354600       0.08521200
Cu       8.23906000       7.68410000      16.10050000      -0.03629500      -0.01893700       0.02542700      -0.02209400
Cu       5.81984000       1.83274000      18.20220000      -0.01614400      -0.37518900      -0.21781000      -0.12692600
Cu       8.26184000       1.73964000      18.11560000      -0.00264300       0.28067800       0.59794600       0.50156200
Cu       0.71505000       1.81271000      18.18020000      -0.00662700      -0.36158000      -0.01270900      -0.18053400
Cu       3.13440000       1.73132000      18.22380000      -0.00072800       0.65820500       0.83974800      -0.14636000
Cu       6.92943000       4.04269000      18.17120000      -0.00576900       0.45465700      -0.20111200       0.17420300
Cu       9.61992000       3.92377000      18.32190000      -0.00902300      -0.39125800       0.31071900      -1.01360100
Cu       1.98701000       4.10003000      18.25390000      -0.00220500      -0.18842200      -0.40850000      -0.44644600
Cu       4.45738000       3.93641000      18.09650000      -0.00690500      -0.02145400       0.25357300       0.57705900
Cu       8.19382000       6.17621000      18.12780000      -0.01135700       0.42167200      -0.06851800       0.36432700
Cu       0.62716000       6.25607000      18.11980000      -0.00556500       0.26297900      -0.14898400       0.43700700
Cu       3.31269000       6.19616000      18.12760000      -0.00194100      -0.80886800       0.39593400       0.50821400
Cu       5.69345000       6.26790000      18.19260000       0.00511200       0.29189700      -0.30557000       0.06777300
Cu       9.43141000       8.39693000      18.21330000       0.00401700       0.79866800      -0.02842700      -0.15019700
Cu       1.98009000       8.46041000      18.18530000      -0.01360100      -0.64011300      -0.93170100       0.12012200
Cu       4.47462000       8.46166000      18.15890000       0.01002300       0.09404300      -0.27386900       0.06489700
Cu       7.05844000       8.37863000      18.25180000      -0.00651100      -0.48446100       0.20445300      -0.25645400
Cu       5.70305000       0.26370000      20.18820000      -0.08696900       0.35376400       0.57480300       0.32928300
Cu       8.41105000       0.33973000      20.53940000      -0.08854100      -0.89421900      -0.17233200      -0.73774300
Cu       0.58034000       0.37985000      20.22730000      -0.13154400       1.09964300      -0.71458900      -0.00625700
Cu       3.19052000       0.23593000      20.28020000      -0.10518700      -0.00524200       0.16361700      -0.39759200
Cu       7.16305000       2.45484000      20.24500000      -0.07066300      -0.37614600       0.21461900      -0.18730300
Cu       9.66230000       2.45956000      20.26960000      -0.10743000      -0.64887300       0.50945500       0.11721700
Cu       1.94947000       2.53583000      20.24830000      -0.01124600       0.32111600       0.11753100      -0.16867600
Cu       4.52073000       2.51147000      20.17420000      -0.05087000      -0.00229100       0.08016000      -0.10976500
Cu       8.32629000       4.68882000      20.17210000      -0.11486200      -0.24423500       0.24454000       0.34372600
Cu       0.72408000       4.71429000      20.25710000      -0.11690300      -0.16665600       0.29824400       0.18149800
Cu       3.24743000       4.81469000      20.22980000      -0.11615700       0.17225800      -0.35575700      -0.04011700
Cu       5.73839000       4.70739000      20.27900000      -0.12318100       0.20056700       0.05213900      -0.38118100
Cu       9.56308000       6.93272000      20.20000000      -0.12859700      -0.10057500      -0.33575800       0.01269900
Cu       1.94232000       6.88870000      20.36170000      -0.07638500      -0.09694400       0.19976500      -0.58067800
Cu       4.51975000       6.95295000      20.35130000      -0.06644400      -0.29607000      -0.36402000      -0.23189400
Cu       6.97907000       6.96171000      20.24970000      -0.12307700       0.43480700      -0.39875600       0.07745200
O        1.12447000       3.75669000       7.29917000      -1.33672500      -1.90117600      -0.42388700      -0.26582800
O        8.15636000       4.16636000       6.60574000      -1.38462000      -0.64680700      -0.05718900      -0.47396300
O        1.26870000       7.89654000       3.82762000      -1.29333600      -2.44449100       0.98018600       1.69851600
O        1.47965000       2.86030000      25.36920000      -1.34867500      -0.74669400       0.29346500       0.05693300
O        1.97595000       3.15331000       1.26829000      -1.36418800      -0.12431600      -0.22403200      -2.11607200
O        3.47790000       2.22872000      27.61100000      -1.29118900      -0.44231700       1.95896100       0.22311700
O        0.89618000       5.26197000      28.88900000      -1.27318000      -1.47335000       1.34442500      -0.40671800
O        4.27708000       4.16085000       6.38876000      -1.34600200       0.04214600       1.03815100      -0.35617300
O        0.29157000       6.50824000      23.42700000      -1.34630600       0.65663000      -1.37179800      -0.08423800
O        8.09815000       7.98940000      23.38240000      -1.28713200      -0.91373300       0.57344600      -0.12753300
O        6.37439000       3.51977000      28.36770000      -1.37490900       0.18739600      -0.37579600      -0.32789100
O        5.98174000       0.95211000       3.57056000      -1.31228500      -0.66650400       0.57639300      -1.28996500
O        4.10061000       1.93392000       4.93239000      -1.38482700       0.78891100      -0.92335600       0.41380300
O        4.52865000       4.23782000      23.30630000      -1.35953800      -0.38781200      -0.81765200       1.28415700
O        4.09741000       7.16448000       2.88921000      -1.27015200       1.89121700       1.30365700       1.53069600
O        0.08247000       4.79109000       4.48033000      -1.29222300      -0.05783500      -0.48114100       0.38477800
O        8.60842000       6.27127000       1.23300000      -1.34033700       0.36491600       0.41537200      -0.20051400
O        8.34981000       7.99351000       3.54484000      -1.24732200       0.32507500       3.02951200      -1.46997100
O        1.90795000       7.78727000      27.19770000      -1.34810800       0.45746700      -1.95756200       0.71846700
O        7.13027000       7.50071000      29.20340000      -1.33292200      -0.09185000       0.60527400       0.05103200
O        2.64922000       1.77535000      22.69670000      -1.31827900      -2.37337200      -0.18197400       0.74959200
O        5.65655000       1.67412000      23.24460000      -1.31993300       1.65129500       2.20914800       0.33841700
O        2.78717000       7.56426000       0.44629000      -1.31851600      -0.53489300       0.37710900       0.57661500
O        4.79298000       6.15092000      29.69520000      -1.37159200       0.22143200       0.31697600       1.06105500
O        2.53256000       5.03751000      26.47260000      -1.33370300      -0.29107500      -0.87684100       1.04101900
O        5.61831000       2.40893000       0.85269000      -1.32137100      -1.00094500       1.34137000       0.94685600
O        7.44998000       1.23922000      26.51890000      -1.28034500      -0.41148800       0.69916500      -0.32957200
O        9.07838000       4.61627000      24.94890000      -1.32025100       0.13766200       0.67918500      -0.95411700
O        4.80758000       8.54255000      27.23710000      -1.32414200       0.86880700      -0.71452300       1.26788700
O        4.48651000       6.54288000       5.49654000      -1.31776200       0.93706400       1.44383700       0.90657200
O        9.82602000       7.70922000       6.54340000      -1.32335800       0.50187600      -0.17062900      -0.07861100
O        1.44303000       1.08591000      29.67060000      -1.36327700      -1.39167300       2.04997800      -0.27218700
O        1.23788000       5.97225000       1.94320000      -1.33741000      -0.58697900      -0.01555500      -0.07442300
O        7.33254000       1.60753000       6.69009000      -1.34263300      -0.46584300       0.24720700      -0.40782300
O        8.42103000       2.13181000      23.44120000      -1.36424500      -0.50484900      -0.80644400       0.30652400
O        7.08987000       6.74215000       6.52014000      -1.36089700      -0.53733200       1.95983600      -0.73134100
O        7.13278000       3.48606000       3.95113000      -1.29242900       0.25896100       0.21508000       1.91043200
O        9.78215000       1.44619000       5.49770000      -1.32257200       0.11381500      -0.94251500       1.10227600
O        8.97527000       6.55233000      27.52880000      -1.30701000      -1.56877800       1.03133600      -0.23661200
O        9.04890000       3.76719000      27.72460000      -1.26339900      -0.10365200      -0.37172100       0.67458300
O        1.63499000       1.70835000       3.74193000      -1.32733800      -0.48077800       0.27514600       0.69551000
O        5.07479000       5.33761000      27.10580000      -1.38271600       0.31254800       0.00150500       0.40954300
O        4.13406000       4.58148000       2.05954000      -1.30547900       0.67429300       0.64321700      -0.67357800
O        2.67131000       8.74788000       6.16711000      -1.31895300       0.63525300       0.44875600       1.75082700
O        9.00267000       0.90970000       0.64541000      -1.31201400       0.19240500       0.50974900       0.19819800
O        5.21259000       7.99127000      24.29300000      -1.36215400      -1.97839400       1.31694000      -0.04367600
O        0.06234000       1.25906000      27.28350000      -1.36920500       0.81314000       0.15859000       0.42928900
O        2.87931000       6.49419000      23.97400000      -1.36741900      -0.08336500      -0.57762400      -0.02166500
O        6.33108000       5.38740000      24.61860000      -1.38704900      -2.91277700       1.37746900       0.45996600
O        7.87352000       3.47201000       1.48152000      -1.39787100       1.28335300      -0.09967200      -3.19819900
H        1.56826000       3.04058000       7.74685000       0.61681800       0.44208700      -0.76954800       0.67923600
H        1.81003000       4.18735000       6.83221000       0.64311000       1.34968100       0.95648700      -0.95061100
H        7.72259000       3.28660000       6.82842000       0.69409600       0.95940900       0.68754500       0.52251400
H        9.00314000       4.34262000       7.05933000       0.66534700      -0.45728300      -0.74255300       0.00623400
H        4.34446000       6.21943000       2.90087000       0.65432900      -0.38151200       0.16758700      -0.01151400
H        2.03874000       7.46051000       3.56825000       0.66465900       2.36523000      -1.26649300      -0.72073400
H        1.91749000       3.69599000      25.63410000       0.67010000       0.21730800      -0.25074700       0.28812000
H        1.83714000       2.62623000      24.51090000       0.66089300       0.21441100      -0.27729900      -0.43822800
H        1.85999000       2.66380000       2.07339000       0.67467300      -0.47798200      -0.97108100       0.98191000
H        1.86968000       2.48026000       0.49724000       0.67718100       0.24981100       1.05281900       1.52018100
H        4.39713000       5.15544000       6.22347000       0.64639500      -0.43912400      -0.96747800      -0.55776800
H        3.69108000       1.32673000      27.52480000       0.66130500       0.54956100      -1.98709500      -0.04976100
H        3.32192000       1.95180000       4.38939000       0.68975100      -1.42213400       0.31930600      -0.90763400
H        0.25943000       4.57029000      28.57280000       0.63008300       0.29649400       0.53439700       0.14455900
H        5.72671000       4.12961000      27.95650000       0.67661800       0.21609300       0.50621200      -0.37019600
H        4.31404000       4.15495000       7.34532000       0.61950600       0.09081300      -0.60566300       0.91214400
H        0.07677000       6.26182000      22.50220000       0.60969800       0.17857900       0.08924300      -0.27578900
H        8.23264000       0.17418000      23.39460000       0.61296300       0.11001500      -0.30818200       0.22250700
H        7.31965000       7.91493000      22.76950000       0.60149500       0.94122600      -0.25667400       0.19496600
H        6.25048000       7.20958000      29.48400000       0.65766300      -0.73438600      -0.18906500      -0.02825900
H        5.87231000       3.14417000      29.09060000       0.66560400      -0.04694400      -0.54480000       0.89138200
H        3.22994000       8.05090000       1.15691000       0.65856900       0.37326700      -0.01470300      -0.06985100
H        5.71652000       1.37867000       2.67534000       0.60426200       0.48346400      -0.91342200       1.75459600
H        5.23826000       1.20771000       4.23420000       0.67619000       0.83875400       0.14561600      -0.97402400
H        4.29718000       2.64956000      27.34130000       0.60789800       0.02567700       0.12316500      -0.04620500
H        4.23784000       2.80060000       5.33096000       0.71156200       0.06641900       0.89028200       0.69577900
H        4.59620000       4.43073000      22.36600000       0.63344700       0.03751500      -0.11171200      -1.10273800
H        4.60290000       3.25657000      23.41810000       0.68312600      -0.02379100       0.50146200      -0.48942600
H        0.29148000       6.08381000      28.77100000       0.62653000       1.42684100      -1.79786500      -0.03738900
H        4.76056000       7.57363000       3.56950000       0.59746700      -1.86455800      -1.02846900      -1.79066900
H        9.30255000       4.54611000       4.33029000       0.62554700       0.08399800       0.07372200       0.06696400
H        8.36454000       5.33312000       1.13796000       0.66448800      -0.09996000       0.04809100       0.66917500
H        8.43183000       6.65360000       2.12305000       0.67469800      -0.39164600      -0.32796900      -0.24485200
H        7.54289000       8.59086000       3.64892000       0.64137200       0.63294100      -1.10470700      -0.01398400
H        8.94249000       8.69420000       3.06699000       0.60687500      -1.10393000      -2.05491800       1.22178500
H        2.80308000       7.84422000      27.57700000       0.66787000      -0.43302400       0.71974600      -0.66915800
H        1.55268000       8.59342000      26.86640000       0.66713800       0.04374500       1.25669900      -0.06274100
H        0.33653000       5.36765000       3.76267000       0.64438700       0.13970500       0.32545400      -0.44910300
H        7.63847000       7.03553000      29.87500000       0.64893800       0.81314500      -0.24517400       0.32300600
H        3.37152000       1.46534000      22.16640000       0.61530400       1.34487800      -0.35950800      -0.54929100
H        1.87995000       1.31052000      22.23300000       0.58461600       0.84188800       0.61295900       0.63883700
H        9.87160000       7.24516000      23.59220000       0.68734600      -1.15473300       1.26418300       0.05066500
H        6.62115000       2.00383000      23.30370000       0.62303200      -1.57151500      -0.67682000      -0.35037100
H        5.69935000       0.72481000      23.23560000       0.64129200      -0.25234500      -1.03470600       0.30594100
H        2.22017000       6.96970000       1.01557000       0.66763400      -0.03451000      -0.11550200      -0.55122000
H        4.05062000       6.76641000      29.88740000       0.68170400      -0.16503700      -0.14738600       0.02555100
H        2.45299000       5.73848000      25.84550000       0.69193600      -0.02642700       1.38460400      -1.16794200
H        5.10887000       3.16091000       1.30227000       0.61843000       0.10464800      -1.14769200      -0.72363000
H        1.90138000       5.26159000      27.19300000       0.66064700       0.17317400      -0.04175500       0.23169200
H        4.80672000       5.99155000      28.75690000       0.67209600      -0.01234800      -0.29603500      -1.01158900
H        6.49985000       2.82006000       1.01026000       0.66556100       0.28574400      -0.36029300      -0.20321000
H        7.10128000       2.00745000      27.01560000       0.64526400       0.13443900      -0.32793900       0.13096600
H        7.12577000       1.43853000      25.61990000       0.62679500       0.35210000      -0.36883500       0.27406200
H        9.91321000       4.18035000      25.17370000       0.65028300       0.03782000      -0.22928200       0.18332900
H        4.95782000       8.47195000      26.28680000       0.68102100       0.20476900      -0.30407500      -0.47172700
H        3.95217000       7.32363000       5.81931000       0.65101300       0.24668300      -0.72183300      -0.17212900
H        9.36102000       5.27723000      24.25420000       0.64411600       0.03699000      -0.48843800       0.68104400
H        5.41926000       6.71103000       5.84260000       0.64913800      -0.85799600      -0.10108700      -0.35611600
H        8.87989000       7.46948000       6.52694000       0.65698900       0.17809700      -0.33742000       0.07389300
H        0.14748000       7.13066000       7.19153000       0.62388100      -0.58938000       0.57210000      -0.20806500
H        1.78937000       0.21802000      29.75280000       0.68241400       0.71219500      -1.71705600       0.00528400
H        1.24682000       5.09716000       1.54426000       0.66822900       0.46997800      -0.71180300      -0.33595100
H        0.94856000       1.18979000      28.82500000       0.68765600       0.62413400      -0.37732000       0.01286600
H        0.31839000       6.22975000       1.72905000       0.67709700       0.03781400       0.28551800      -0.05655600
H        8.39707000       0.39527000       0.11881000       0.63931900      -0.66517000      -0.39496000      -0.27119900
H        8.16785000       1.29294000       6.29225000       0.66061600      -0.14223100      -0.18923800       0.14833800
H        6.92077000       0.93720000       7.26203000       0.61966200       0.35527700       0.14682500       0.03279500
H        8.82610000       2.96663000      23.70290000       0.65516700       0.20419000       0.27983200      -0.17830500
H        7.31117000       5.83752000       6.67146000       0.69642100       0.49693300      -1.80824800       0.42464300
H        6.95718000       2.54195000       4.11494000       0.63454200      -0.25218900      -0.23641300      -0.43848900
H        6.84190000       7.11295000       7.38460000       0.60308000       0.02140500      -0.16406700       0.44855400
H        8.67445000       1.86716000      22.52430000       0.61201400       0.22384800       0.71588800      -0.12842300
H        7.31307000       3.77690000       4.88975000       0.64230300       0.04607100       0.13068100      -1.16469300
H       10.05090000       2.14238000       6.12489000       0.64282300       0.00530300      -0.18959500       0.03605800
H        9.99675000       0.55607000       5.95894000       0.67447100      -0.13758300       1.21472500      -0.53908800
H        5.59125000       8.11171000      27.68490000       0.63982400      -1.19874800       0.87675200      -0.99571900
H        8.18058000       4.02928000      28.08360000       0.64908800       0.04387900       0.08594900      -0.16800000
H        1.02342000       2.12477000       4.42105000       0.64523300       0.75488000      -0.80853800      -1.15562100
H        9.15436000       2.88502000      28.10780000       0.61043800       0.10849400      -0.06367300      -0.30922500
H        8.88500000       6.08228000      26.68410000       0.65204900       0.08751400       0.01909900       0.18179900
H        1.43243000       0.71663000       3.83766000       0.65794300       0.26753500       0.81899300      -0.23816700
H        4.13826000       5.18066000      26.87230000       0.68937500      -0.30926500       0.03274500      -0.41985300
H        5.62441000       5.35640000      26.29630000       0.68770400      -0.20311500       0.12596200      -0.48426600
H        1.14063000       7.68098000       4.78353000       0.65412600       0.00706700       0.25102000      -0.80772200
H        3.33263000       4.06655000       2.02509000       0.67201200      -0.90426000      -0.83879300       0.12899600
H        3.12642000       0.71826000       5.71754000       0.66140400      -0.11997200      -0.38562200       0.53780200
H        4.00668000       5.05997000       1.21659000       0.64205300       0.65392700       0.05254700       0.10579000
H        2.80957000       0.17422000       7.15748000       0.59035700      -0.31657600      -0.47120800      -1.69417400
H        9.80342000       0.96701000       0.09586000       0.65669200       0.34260900      -0.04555100       0.39188000
H        8.11255000       7.05839000      27.67500000       0.64071100       1.52102600      -1.01632800      -0.07774100
H        4.42218000       7.53328000      23.90920000       0.67061600       0.38827900       0.13812600       0.45506100
H        5.93099000       7.40613000      24.21950000       0.67923600       1.40653600      -1.64663600      -0.02219900
H        0.39211000       1.96210000      26.70260000       0.69196400       0.33919900       0.05315900      -0.33563200
H        9.32983000       1.05453000      26.95510000       0.68707800      -0.98723900      -0.20552600      -0.34556500
H        1.94589000       6.65630000      23.64850000       0.68725100       0.87356700      -0.46523900       0.11785400
H        3.18785000       5.60941000      23.65190000       0.65094100      -0.46635300       0.84974300       0.07009200