LAMMPS (28 Mar 2023 - Development)
KOKKOS mode is enabled (src/KOKKOS/kokkos.cpp:107)
  will use up to 1 GPU(s) per node
  using 1 OpenMP thread(s) per MPI task
package kokkos
# LAMMPS input script

# == SETUP ==
units metal #ps A K  pressure in bars
atom_style atomic

atom_modify map yes
newton on

timer timeout 23:55:00
New timer settings: style=normal  mode=nosync  timeout=23:55:00

# == VARIABLES ==
variable    temp_water equal 330  # Temperature of water system
variable    temp_Cu_mobile equal 310 # Temperatureof the Cu atom (not fixed). 310 K ensures a temperature of 330 K in the outermost Cu atoms.
variable    seed1 equal 256982574
variable    seed2 equal 1008705
variable    stride equal 1000
variable    nsteps equal 2000000 # 1000 ps
variable    tstep equal 0.0005 # 0.5fs

# == DATA ==
boundary p p p #full
read_data Cu_H2O_m075.data
Reading data file ...
  orthogonal box = (0 0 0) to (10.140377 8.7818242 30.131127)
  1 by 1 by 1 MPI processor grid
  reading atoms ...
  246 atoms
  reading velocities ...
  246 velocities
  read_data CPU = 0.492 seconds
mass		1 63.55   # Cu
mass		2 2.0016  # H
mass 		3 15.9994 # O

# == Define GROUPS ==
group H2O type 2 3
150 atoms in group H2O

# == DEFINE FIX Cu layers ==
variable z_fix_bottom equal 13.5 # A
variable z_fix_up equal 16.5# # A
region fixedlayer block  INF INF INF INF ${z_fix_bottom} ${z_fix_up} #
region fixedlayer block  INF INF INF INF 13.5 ${z_fix_up} 
region fixedlayer block  INF INF INF INF 13.5 16.5 

group Cuall type 1
96 atoms in group Cuall
group fixedCu region fixedlayer
32 atoms in group fixedCu
group mobileCu subtract Cuall fixedCu
64 atoms in group mobileCu

# == Fix layers in the middle of the slab ==
fix fissoCubott fixedCu setforce 0 0 0
velocity fixedCu set 0 0 0

# == Define surface layers ==

variable z_surface_inf_low equal 9.0 # A
variable z_surface_inf_high equal 10.6 # A
region surface_inf block  INF INF INF INF ${z_surface_inf_low} ${z_surface_inf_high}
region surface_inf block  INF INF INF INF 9 ${z_surface_inf_high}
region surface_inf block  INF INF INF INF 9 10.6
group surf_inf_Cu region surface_inf
16 atoms in group surf_inf_Cu

variable z_surface_sup_low equal 19.8 # A
variable z_surface_sup_high equal 21.0 # A
region surface_sup block  INF INF INF INF ${z_surface_sup_low} ${z_surface_sup_high}
region surface_sup block  INF INF INF INF 19.8 ${z_surface_sup_high}
region surface_sup block  INF INF INF INF 19.8 21
group surf_sup_Cu region surface_sup
16 atoms in group surf_sup_Cu

# == Define Pair Style ==

pair_style mace no_domain_decomposition
pair_coeff * * Franken_Cu_H2O_m075_RF_1024-lammps.pt Cu H O

# == Define NVT thermostat ==

velocity mobileCu create ${temp_Cu_mobile} ${seed1} mom yes rot yes
velocity mobileCu create 310 ${seed1} mom yes rot yes
velocity mobileCu create 310 256982574 mom yes rot yes
fix NVT_Cu mobileCu nvt temp ${temp_Cu_mobile} ${temp_Cu_mobile} $(100.0*dt)
fix NVT_Cu mobileCu nvt temp 310 ${temp_Cu_mobile} $(100.0*dt)
fix NVT_Cu mobileCu nvt temp 310 310 $(100.0*dt)
fix NVT_Cu mobileCu nvt temp 310 310 0.10000000000000000555

velocity  H2O create ${temp_water} ${seed2}
velocity  H2O create 330 ${seed2}
velocity  H2O create 330 1008705
fix NVT_H2O H2O nvt temp ${temp_water} ${temp_water} $(100.0*dt)
fix NVT_H2O H2O nvt temp 330 ${temp_water} $(100.0*dt)
fix NVT_H2O H2O nvt temp 330 330 $(100.0*dt)
fix NVT_H2O H2O nvt temp 330 330 0.10000000000000000555

# == Compute and Visualization ==

thermo          ${stride}
thermo          1000
thermo_style    custom step pe ke etotal temp press vol
thermo_modify	flush yes
fix 		thermo_print all print ${stride} "$(step) $(pe) $(ke) $(etotal) $(temp) $(press) $(vol)" append thermo.out screen no title "#step pe ke etotal temp press vol"
fix 		thermo_print all print 1000 "$(step) $(pe) $(ke) $(etotal) $(temp) $(press) $(vol)" append thermo.out screen no title "#step pe ke etotal temp press vol"

compute Tmobile mobileCu temp
compute Tsurface_inf surf_inf_Cu temp
compute Tsurface_sup surf_sup_Cu temp
compute Twater H2O temp
compute Tall all temp
compute Press all pressure Tall

fix myat1 mobileCu ave/time 1 1 100 c_Tmobile file temperature_mobile.dat
fix myat2 surf_inf_Cu ave/time 1 1 100 c_Tsurface_inf file temperature_surf_inf.dat
fix myat3 surf_sup_Cu ave/time 1 1 100 c_Tsurface_sup file temperature_surf_sup.dat
fix myat4 H2O ave/time 1 1 100 c_Twater file temperature_water.dat
fix myat5 all ave/time 1 1 100 c_Press[3]  file pressure_all.dat

dump		viewNVT all custom ${stride} Cu_H2O_NVT_m075.dump id type element x y z fx fy fz
dump		viewNVT all custom 1000 Cu_H2O_NVT_m075.dump id type element x y z fx fy fz
dump_modify	viewNVT sort id append yes element Cu H O

# == RUN  NVT ==

timestep ${tstep}
timestep 0.0005
run		${nsteps}
run		2000000
Generated 0 of 3 mixed pair_coeff terms from geometric mixing rule
Neighbor list info ...
  update: every = 1 steps, delay = 0 steps, check = yes
  max neighbors/atom: 2000, page size: 100000
  master list distance cutoff = 14
  ghost atom cutoff = 14
  binsize = 14, bins = 1 1 3
  1 neighbor lists, perpetual/occasional/extra = 1 0 0
  (1) pair mace/kk, perpetual
      attributes: full, newton on, kokkos_device
      pair build: full/bin/kk/device
      stencil: full/bin/3d
      bin: kk/device
Per MPI rank memory allocation (min/avg/max) = 4.832 | 4.832 | 4.832 Mbytes
   Step         PotEng         KinEng         TotEng          Temp          Press          Volume    
         0  -1810.8914      8.880172      -1802.0112      280.40816      3534.9742      2683.2073    
      1000  -1811.3248      8.9942737     -1802.3306      284.01114      3580.3952      2683.2073    
      2000  -1811.7058      8.4518606     -1803.2539      266.88343      3364.4742      2683.2073    
      3000  -1810.4647      8.9100473     -1801.5547      281.35153      3546.8668      2683.2073    
      4000  -1810.703       9.2159898     -1801.4871      291.01224      3668.6548      2683.2073    
      5000  -1811.0678      8.2589932     -1802.8088      260.79327      3287.6985      2683.2073    
      6000  -1810.2559      8.9668089     -1801.2891      283.14389      3569.4622      2683.2073    
      7000  -1810.9835      9.7907214     -1801.1928      309.16048      3897.4411      2683.2073    
      8000  -1810.255       8.3735279     -1801.8814      264.40992      3333.2919      2683.2073    
      9000  -1811.499       9.5028251     -1801.9962      300.06961      3782.8368      2683.2073    
     10000  -1811.4312      8.461777      -1802.9694      267.19655      3368.4216      2683.2073    
     11000  -1810.6343      8.7524722     -1801.8818      276.3758       3484.1401      2683.2073    
     12000  -1810.8996      9.726687      -1801.1729      307.13847      3871.9506      2683.2073    
     13000  -1811.6635      9.4386673     -1802.2249      298.04371      3757.2972      2683.2073    
     14000  -1810.8749      8.6948535     -1802.1801      274.55638      3461.2036      2683.2073    
     15000  -1811.4152      8.1665684     -1803.2486      257.87479      3250.9065      2683.2073    
     16000  -1810.0663      8.9479343     -1801.1184      282.54789      3561.9487      2683.2073    
     17000  -1810.4531      8.134824      -1802.3183      256.8724       3238.2698      2683.2073    
     18000  -1810.2737      8.5664794     -1801.7073      270.50273      3410.101       2683.2073    
     19000  -1810.7548      9.5565329     -1801.1983      301.76553      3804.2165      2683.2073    
     20000  -1810.6237      8.1392182     -1802.4844      257.01115      3240.019       2683.2073    
     21000  -1811.5646      8.1672703     -1803.3973      257.89695      3251.1859      2683.2073    
     22000  -1810.8835      9.2590373     -1801.6244      292.37155      3685.791       2683.2073    
     23000  -1810.6342      8.7934306     -1801.8407      277.66914      3500.4446      2683.2073    
     24000  -1809.9544      8.4608412     -1801.4936      267.167        3368.0491      2683.2073    
     25000  -1810.1172      9.2200136     -1800.8972      291.1393       3670.2566      2683.2073    
     26000  -1809.4614      8.5531216     -1800.9083      270.08093      3404.7836      2683.2073    
     27000  -1811.9449      8.3112322     -1803.6337      262.44282      3308.4935      2683.2073    
     28000  -1810.552       8.6989696     -1801.8531      274.68636      3462.842       2683.2073    
     29000  -1811.4514      9.2049303     -1802.2465      290.66302      3664.2523      2683.2073    
     30000  -1811.2889      9.8357459     -1801.4532      310.58221      3915.3642      2683.2073    
     31000  -1811.8242      9.3560669     -1802.4682      295.43544      3724.416       2683.2073    
     32000  -1811.6875      9.4823703     -1802.2051      299.42371      3774.6943      2683.2073    
     33000  -1812.1671      9.2440131     -1802.9231      291.89713      3679.8102      2683.2073    
     34000  -1812.2536      8.7649306     -1803.4887      276.7692       3489.0995      2683.2073    
     35000  -1811.657       9.2909839     -1802.366       293.38032      3698.5081      2683.2073    
     36000  -1811.5517      10.131013     -1801.4206      319.90583      4032.9027      2683.2073    
     37000  -1811.1195      8.3446987     -1802.7748      263.49959      3321.8157      2683.2073    
     38000  -1811.4531      8.8547097     -1802.5984      279.60414      3524.8383      2683.2073    
     39000  -1811.2013      9.0929729     -1802.1083      287.12775      3619.6849      2683.2073    
     40000  -1810.7441      8.8842818     -1801.8598      280.53794      3536.6102      2683.2073    
     41000  -1810.4375      8.8560836     -1801.5815      279.64753      3525.3852      2683.2073    
     42000  -1811.4587      8.3215321     -1803.1372      262.76806      3312.5936      2683.2073    
     43000  -1810.5877      8.7557766     -1801.8319      276.48014      3485.4555      2683.2073    
     44000  -1810.4055      8.690797      -1801.7147      274.42829      3459.5887      2683.2073    
     45000  -1809.9478      9.5254832     -1800.4223      300.78508      3791.8564      2683.2073    
     46000  -1810.1145      9.2162612     -1800.8983      291.02082      3668.7629      2683.2073    
     47000  -1809.8986      9.093526      -1800.8051      287.14522      3619.9051      2683.2073    
     48000  -1810.2775      9.2194927     -1801.058       291.12286      3670.0493      2683.2073    
     49000  -1809.6614      8.8691626     -1800.7923      280.06052      3530.5916      2683.2073    
     50000  -1810.2741      8.9502059     -1801.3239      282.61962      3562.853       2683.2073    
     51000  -1811.2942      7.7922853     -1803.5019      246.05609      3101.9137      2683.2073    
     52000  -1809.9357      8.9375704     -1800.9982      282.22063      3557.823       2683.2073    
     53000  -1810.1442      8.8913175     -1801.2529      280.7601       3539.4109      2683.2073    
     54000  -1808.9953      9.1697191     -1799.8256      289.55116      3650.2356      2683.2073    
     55000  -1811.139       8.606579      -1802.5324      271.76895      3426.0637      2683.2073    
     56000  -1810.5372      9.037937      -1801.4993      285.38989      3597.7765      2683.2073    
     57000  -1810.1201      8.9762506     -1801.1439      283.44203      3573.2207      2683.2073    
     58000  -1810.5264      8.6107131     -1801.9157      271.89949      3427.7094      2683.2073    
     59000  -1810.2265      8.1391749     -1802.0873      257.00979      3240.0018      2683.2073    
     60000  -1810.0879      9.6499371     -1800.438       304.71495      3841.3984      2683.2073    
     61000  -1809.4096      8.9404119     -1800.4692      282.31035      3558.9542      2683.2073    
     62000  -1810.0133      8.8308993     -1801.1824      278.85229      3515.36        2683.2073    
     63000  -1810.7124      8.5305999     -1802.1818      269.36977      3395.8183      2683.2073    
     64000  -1810.4667      8.9721187     -1801.4946      283.31155      3571.5759      2683.2073    
     65000  -1809.8561      9.3288057     -1800.5273      294.57462      3713.5641      2683.2073    
     66000  -1809.6351      9.230904      -1800.4042      291.48319      3674.5918      2683.2073    
     67000  -1809.6565      8.3743931     -1801.2821      264.43724      3333.6363      2683.2073    
     68000  -1810.2251      9.0723002     -1801.1528      286.47497      3611.4556      2683.2073    
     69000  -1809.922       8.9175406     -1801.0044      281.58815      3549.8497      2683.2073    
     70000  -1810.9117      8.3095027     -1802.6022      262.38821      3307.805       2683.2073    
     71000  -1810.5171      9.3074169     -1801.2097      293.89923      3705.0497      2683.2073    
     72000  -1810.8522      8.2130027     -1802.6392      259.34104      3269.3908      2683.2073    
     73000  -1810.8185      8.6247841     -1802.1937      272.34381      3433.3107      2683.2073    
     74000  -1810.1164      9.032472      -1801.084       285.21732      3595.601       2683.2073    
     75000  -1810.537       8.415833      -1802.1211      265.74578      3350.1324      2683.2073    
     76000  -1811.3214      9.2530093     -1802.0684      292.18121      3683.3914      2683.2073    
     77000  -1810.4952      8.7929708     -1801.7023      277.65462      3500.2616      2683.2073    
     78000  -1810.9001      8.1786874     -1802.7215      258.25747      3255.7307      2683.2073    
     79000  -1810.3065      9.3671022     -1800.9394      295.7839       3728.8089      2683.2073    
     80000  -1808.9137      8.1271626     -1800.7865      256.63047      3235.22        2683.2073    
     81000  -1810.3777      8.5400632     -1801.8377      269.66859      3399.5854      2683.2073    
     82000  -1811.7546      9.5725479     -1802.1821      302.27124      3810.5917      2683.2073    
     83000  -1810.5046      9.9365447     -1800.5681      313.76512      3955.4897      2683.2073    
     84000  -1809.9338      8.5188771     -1801.4149      268.9996       3391.1517      2683.2073    
     85000  -1810.4871      8.6485644     -1801.8386      273.09472      3442.777       2683.2073    
     86000  -1810.6528      10.339802     -1800.313       326.49874      4116.0164      2683.2073    
     87000  -1810.1177      9.1438539     -1800.9739      288.73442      3639.9394      2683.2073    
     88000  -1810.934       9.2151527     -1801.7189      290.98581      3668.3216      2683.2073    
     89000  -1810.6953      9.1374646     -1801.5579      288.53266      3637.3959      2683.2073    
     90000  -1811.1255      7.7119762     -1803.4135      243.52018      3069.9447      2683.2073    
     91000  -1811.258       8.4808942     -1802.7771      267.80022      3376.0317      2683.2073    
     92000  -1810.3359      8.9106253     -1801.4252      281.36978      3547.0969      2683.2073    
     93000  -1810.3445      9.3078998     -1801.0366      293.91448      3705.2419      2683.2073    
     94000  -1810.8186      9.0631272     -1801.7555      286.18532      3607.8041      2683.2073    
     95000  -1812.2812      8.0256036     -1804.2556      253.42356      3194.7919      2683.2073    
     96000  -1810.7107      8.7472864     -1801.9634      276.21205      3482.0758      2683.2073    
     97000  -1811.0211      9.1744187     -1801.8466      289.69956      3652.1064      2683.2073    
     98000  -1811.7636      9.1857473     -1802.5779      290.05728      3656.6161      2683.2073    
     99000  -1810.9114      9.1134252     -1801.798       287.77357      3627.8264      2683.2073    
    100000  -1811.5473      8.1659124     -1803.3814      257.85407      3250.6453      2683.2073    
    101000  -1811.6462      8.0098789     -1803.6363      252.92702      3188.5323      2683.2073    
    102000  -1811.3597      9.0532694     -1802.3064      285.87404      3603.8799      2683.2073    
    103000  -1809.7485      7.9855817     -1801.7629      252.15979      3178.8602      2683.2073    
    104000  -1811.075       10.036359     -1801.0386      316.91695      3995.2234      2683.2073    
    105000  -1812.0003      9.8842798     -1802.116       312.11476      3934.6844      2683.2073    
    106000  -1811.386       8.6957102     -1802.6903      274.58343      3461.5446      2683.2073    
    107000  -1811.2746      8.2579946     -1803.0166      260.76174      3287.3009      2683.2073    
    108000  -1812.4148      8.3295365     -1804.0852      263.02081      3315.78        2683.2073    
    109000  -1812.1851      8.3736703     -1803.8114      264.41442      3333.3486      2683.2073    
    110000  -1812.3564      8.5864258     -1803.77        271.13257      3418.0412      2683.2073    
    111000  -1811.2669      7.9037444     -1803.3632      249.57562      3146.2828      2683.2073    
    112000  -1811.4974      8.9433476     -1802.5541      282.40305      3560.1228      2683.2073    
    113000  -1810.8885      8.5311553     -1802.3573      269.3873       3396.0394      2683.2073    
    114000  -1811.3892      8.4787557     -1802.9104      267.73269      3375.1804      2683.2073    
    115000  -1810.49        9.3511624     -1801.1389      295.28057      3722.4637      2683.2073    
    116000  -1811.423       10.07944      -1801.3436      318.2773       4012.3727      2683.2073    
    117000  -1810.1439      9.1455202     -1800.9984      288.78703      3640.6027      2683.2073    
    118000  -1810.339       8.9395026     -1801.3995      282.28164      3558.5922      2683.2073    
    119000  -1811.6397      8.1659723     -1803.4737      257.85596      3250.6692      2683.2073    
    120000  -1811.2394      9.9230953     -1801.3163      313.34043      3950.1359      2683.2073    
    121000  -1810.4767      9.5929959     -1800.8837      302.91692      3818.7315      2683.2073    
    122000  -1810.2403      9.7050416     -1800.5352      306.45498      3863.3341      2683.2073    
    123000  -1810.2484      8.8754175     -1801.373       280.25803      3533.0815      2683.2073    
    124000  -1811.5033      8.9074276     -1802.5959      281.26881      3545.824       2683.2073    
    125000  -1810.4751      8.8721401     -1801.603       280.15454      3531.7769      2683.2073    
    126000  -1809.5551      8.9130507     -1800.642       281.44637      3548.0624      2683.2073    
    127000  -1810.4217      9.4748262     -1800.9468      299.18549      3771.6911      2683.2073    
    128000  -1811.3222      8.9861049     -1802.3361      283.75319      3577.1434      2683.2073    
    129000  -1810.572       9.3849805     -1801.187       296.34844      3735.9258      2683.2073    
    130000  -1809.2656      8.9980896     -1800.2675      284.13163      3581.9142      2683.2073    
    131000  -1810.7918      8.6878611     -1802.104       274.33559      3458.42        2683.2073    
    132000  -1810.6689      9.0799169     -1801.589       286.71548      3614.4876      2683.2073    
    133000  -1810.9784      8.245459      -1802.7329      260.36591      3282.3109      2683.2073    
    134000  -1810.4766      8.4658235     -1802.0108      267.32433      3370.0324      2683.2073    
    135000  -1810.1702      9.1604932     -1801.0097      289.25983      3646.563       2683.2073    
    136000  -1811.0781      8.2507428     -1802.8274      260.53275      3284.4142      2683.2073    
    137000  -1810.3754      8.5352267     -1801.8401      269.51587      3397.6601      2683.2073    
    138000  -1810.8673      8.8900599     -1801.9772      280.72039      3538.9103      2683.2073    
    139000  -1811.2324      8.5183352     -1802.7141      268.98249      3390.936       2683.2073    
    140000  -1810.5673      9.3801357     -1801.1872      296.19546      3733.9972      2683.2073    
    141000  -1810.7011      9.0448985     -1801.6562      285.60971      3600.5477      2683.2073    
    142000  -1811.1884      8.3305084     -1802.8579      263.0515       3316.1669      2683.2073    
    143000  -1810.6418      9.6890558     -1800.9528      305.95019      3856.9706      2683.2073    
    144000  -1811.0393      8.2665437     -1802.7728      261.0317       3290.7041      2683.2073    
    145000  -1811.3239      8.376004      -1802.9479      264.48811      3334.2775      2683.2073    
    146000  -1811.0505      8.3753707     -1802.6752      264.46811      3334.0254      2683.2073    
    147000  -1812.6448      7.8980367     -1804.7468      249.39539      3144.0107      2683.2073    
    148000  -1811.7355      9.3287027     -1802.4068      294.57137      3713.523       2683.2073    
    149000  -1812.3503      8.9620561     -1803.3883      282.99381      3567.5702      2683.2073    
    150000  -1811.8408      8.3695159     -1803.4712      264.28324      3331.6948      2683.2073    
    151000  -1813.1485      8.646932      -1804.5016      273.04317      3442.1272      2683.2073    
    152000  -1811.7802      8.6915095     -1803.0887      274.45079      3459.8724      2683.2073    
    153000  -1811.9242      9.6568786     -1802.2674      304.93414      3844.1617      2683.2073    
    154000  -1811.152       7.87854       -1803.2735      248.77975      3136.2496      2683.2073    
    155000  -1810.6487      8.654068      -1801.9947      273.26851      3444.9679      2683.2073    
    156000  -1810.2608      9.3688432     -1800.8919      295.83888      3729.502       2683.2073    
    157000  -1810.7674      8.1228661     -1802.6445      256.49481      3233.5097      2683.2073    
    158000  -1811.7277      9.5241693     -1802.2035      300.74359      3791.3334      2683.2073    
    159000  -1810.8175      8.7240741     -1802.0934      275.47908      3472.8355      2683.2073    
    160000  -1810.9507      8.985231      -1801.9655      283.7256       3576.7955      2683.2073    
    161000  -1811.1749      8.7471765     -1802.4277      276.20858      3482.032       2683.2073    
    162000  -1811.7038      8.7432888     -1802.9605      276.08582      3480.4844      2683.2073    
    163000  -1810.6126      8.4496749     -1802.1629      266.81441      3363.6041      2683.2073    
    164000  -1810.5375      8.6872939     -1801.8502      274.31768      3458.1943      2683.2073    
    165000  -1810.5556      9.5120585     -1801.0435      300.36117      3786.5124      2683.2073    
    166000  -1810.5275      9.60037       -1800.9272      303.14977      3821.667       2683.2073    
    167000  -1811.0875      9.2060098     -1801.8815      290.69711      3664.6821      2683.2073    
    168000  -1811.662       9.3720041     -1802.29        295.93869      3730.7602      2683.2073    
    169000  -1811.2878      8.9720464     -1802.3158      283.30927      3571.5471      2683.2073    
    170000  -1811.2862      9.1341604     -1802.1521      288.42833      3636.0806      2683.2073    
    171000  -1810.8423      8.8157178     -1802.0266      278.3729       3509.3166      2683.2073    
    172000  -1811.1598      9.36582       -1801.7939      295.74342      3728.2985      2683.2073    
    173000  -1812.0524      9.5235577     -1802.5288      300.72428      3791.0899      2683.2073    
    174000  -1811.426       9.1517722     -1802.2742      288.98445      3643.0914      2683.2073    
    175000  -1811.33        7.9492589     -1803.3807      251.01283      3164.401       2683.2073    
    176000  -1811.675       8.5653839     -1803.1097      270.46814      3409.6649      2683.2073    
    177000  -1811.5592      9.4039424     -1802.1552      296.9472       3743.4741      2683.2073    
    178000  -1810.1998      8.8386776     -1801.3612      279.0979       3518.4563      2683.2073    
    179000  -1810.5405      9.331951      -1801.2086      294.67394      3714.8161      2683.2073    
    180000  -1811.3947      8.6018015     -1802.7929      271.61809      3424.1619      2683.2073    
    181000  -1810.1854      8.4245338     -1801.7608      266.02053      3353.596       2683.2073    
    182000  -1810.4819      9.3573602     -1801.1246      295.47628      3724.9309      2683.2073    
    183000  -1810.4582      8.8751332     -1801.5831      280.24905      3532.9684      2683.2073    
    184000  -1809.3992      8.6105762     -1800.7886      271.89517      3427.6549      2683.2073    
    185000  -1809.6897      9.5128107     -1800.1769      300.38492      3786.8118      2683.2073    
    186000  -1809.4608      9.1531381     -1800.3076      289.02758      3643.6352      2683.2073    
    187000  -1812.2167      9.5024457     -1802.7142      300.05763      3782.6858      2683.2073    
    188000  -1810.3384      8.8122364     -1801.5262      278.26297      3507.9307      2683.2073    
    189000  -1809.5314      9.3714248     -1800.1599      295.9204       3730.5297      2683.2073    
    190000  -1809.7967      9.4112566     -1800.3855      297.17816      3746.3857      2683.2073    
    191000  -1811.3036      9.538513      -1801.7651      301.19652      3797.0433      2683.2073    
    192000  -1811.1024      8.8111078     -1802.2913      278.22733      3507.4815      2683.2073    
    193000  -1811.409       8.7993488     -1802.6097      277.85602      3502.8005      2683.2073    
    194000  -1809.8115      8.3217173     -1801.4897      262.7739       3312.6673      2683.2073    
    195000  -1810.7203      8.4870052     -1802.2333      267.99318      3378.4643      2683.2073    
    196000  -1812.0689      9.1952696     -1802.8737      290.35797      3660.4067      2683.2073    
    197000  -1810.2107      9.0114059     -1801.1993      284.55212      3587.2151      2683.2073    
    198000  -1811.4539      8.0678753     -1803.386       254.75837      3211.6192      2683.2073    
    199000  -1810.7439      8.6033503     -1802.1406      271.667        3424.7784      2683.2073    
    200000  -1811.2695      9.039535      -1802.2299      285.44035      3598.4126      2683.2073    
    201000  -1811.1458      8.521827      -1802.624       269.09275      3392.326       2683.2073    
    202000  -1810.895       8.6147733     -1802.2802      272.0277       3429.3256      2683.2073    
    203000  -1811.2624      9.3494402     -1801.913       295.22619      3721.7781      2683.2073    
    204000  -1810.263       8.919478      -1801.3436      281.64933      3550.6209      2683.2073    
    205000  -1810.2114      8.6037783     -1801.6076      271.68051      3424.9488      2683.2073    
    206000  -1810.4087      8.6799077     -1801.7288      274.08444      3455.254       2683.2073    
    207000  -1810.4121      8.4876111     -1801.9245      268.01231      3378.7055      2683.2073    
    208000  -1811.0694      8.6075401     -1802.4619      271.7993       3426.4463      2683.2073    
    209000  -1811.4835      9.0335859     -1802.4499      285.2525       3596.0444      2683.2073    
    210000  -1811.6734      8.2142321     -1803.4592      259.37986      3269.8802      2683.2073    
    211000  -1810.9399      8.4415836     -1802.4983      266.55891      3360.3831      2683.2073    
    212000  -1811.2677      8.9421073     -1802.3256      282.36389      3559.6291      2683.2073    
    213000  -1809.884       8.3251583     -1801.5588      262.88256      3314.0371      2683.2073    
    214000  -1811.324       8.1273171     -1803.1967      256.63535      3235.2815      2683.2073    
    215000  -1810.7995      9.081491      -1801.718       286.76519      3615.1142      2683.2073    
    216000  -1810.3473      8.7828446     -1801.5645      277.33487      3496.2306      2683.2073    
    217000  -1810.6726      9.0023347     -1801.6703      284.26568      3583.6041      2683.2073    
    218000  -1811.0396      8.4420121     -1802.5976      266.57244      3360.5537      2683.2073    
    219000  -1810.2413      8.8378347     -1801.4034      279.07128      3518.1208      2683.2073    
    220000  -1811.2659      9.5123719     -1801.7536      300.37107      3786.6372      2683.2073    
    221000  -1809.7149      8.8606337     -1800.8542      279.79121      3527.1965      2683.2073    
    222000  -1810.1469      9.2552915     -1800.8916      292.25327      3684.2999      2683.2073    
    223000  -1810.1703      9.311095      -1800.8592      294.01537      3706.5139      2683.2073    
    224000  -1809.667       9.4158        -1800.2512      297.32163      3748.1943      2683.2073    
    225000  -1809.4347      8.9867128     -1800.448       283.77239      3577.3854      2683.2073    
    226000  -1811.2319      7.7961412     -1803.4358      246.17785      3103.4486      2683.2073    
    227000  -1810.682       10.501399     -1800.1806      331.60146      4180.344       2683.2073    
    228000  -1812.1067      8.1364849     -1803.9702      256.92484      3238.931       2683.2073    
    229000  -1811.1913      9.0981661     -1802.0931      287.29174      3621.7522      2683.2073    
    230000  -1810.6972      8.7435609     -1801.9536      276.09441      3480.5927      2683.2073    
    231000  -1810.239       9.358307      -1800.8807      295.50618      3725.3078      2683.2073    
    232000  -1809.8987      8.9789784     -1800.9197      283.52816      3574.3065      2683.2073    
    233000  -1811.0141      8.2636797     -1802.7504      260.94126      3289.564       2683.2073    
    234000  -1811.9778      8.9958041     -1802.982       284.05947      3581.0044      2683.2073    
    235000  -1811.1801      9.9684541     -1801.2117      314.77272      3968.1921      2683.2073    
    236000  -1810.818       8.9388638     -1801.8791      282.26147      3558.3379      2683.2073    
    237000  -1811.2882      9.6759406     -1801.6122      305.53606      3851.7498      2683.2073    
    238000  -1811.0397      8.1698697     -1802.8698      257.97903      3252.2206      2683.2073    
    239000  -1810.9722      9.170497      -1801.8017      289.57572      3650.5453      2683.2073    
    240000  -1809.941       9.1186713     -1800.8223      287.93923      3629.9148      2683.2073    
    241000  -1809.8403      9.4103317     -1800.4299      297.14896      3746.0175      2683.2073    
    242000  -1810.2353      9.1644246     -1801.0709      289.38398      3648.128       2683.2073    
    243000  -1809.4577      8.4668759     -1800.9909      267.35756      3370.4514      2683.2073    
    244000  -1809.2657      8.8346205     -1800.4311      278.96979      3516.8413      2683.2073    
    245000  -1810.8078      9.0026432     -1801.8052      284.27542      3583.7269      2683.2073    
    246000  -1810.1952      9.2769905     -1800.9183      292.93846      3692.9377      2683.2073    
    247000  -1809.4581      9.4452366     -1800.0128      298.25114      3759.9123      2683.2073    
    248000  -1810.3167      8.8659325     -1801.4507      279.95853      3529.3058      2683.2073    
    249000  -1810.6413      8.3087284     -1802.3326      262.36376      3307.4968      2683.2073    
    250000  -1810.0704      8.8013129     -1801.2691      277.91804      3503.5824      2683.2073    
    251000  -1810.881       8.5051236     -1802.3759      268.5653       3385.6768      2683.2073    
    252000  -1811.2506      8.7333121     -1802.5173      275.77079      3476.5129      2683.2073    
    253000  -1811.1162      10.135609     -1800.9806      320.05095      4034.7322      2683.2073    
    254000  -1811.5784      8.564943      -1803.0134      270.45421      3409.4894      2683.2073    
    255000  -1810.6231      7.8358794     -1802.7872      247.43266      3119.2674      2683.2073    
    256000  -1810.6563      8.6447674     -1802.0115      272.97482      3441.2655      2683.2073    
    257000  -1810.4195      8.8092592     -1801.6102      278.16896      3506.7456      2683.2073    
    258000  -1811.3353      9.6291585     -1801.7061      304.05882      3833.127       2683.2073    
    259000  -1810.2745      9.2785022     -1800.996       292.98619      3693.5395      2683.2073    
    260000  -1809.6416      9.2756272     -1800.366       292.89541      3692.395       2683.2073    
    261000  -1811.6947      8.420454      -1803.2743      265.8917       3351.972       2683.2073    
    262000  -1811.0181      8.6055031     -1802.4126      271.73498      3425.6354      2683.2073    
    263000  -1810.4987      8.0897001     -1802.409       255.44753      3220.3071      2683.2073    
    264000  -1811.0465      9.1530785     -1801.8935      289.0257       3643.6114      2683.2073    
    265000  -1810.7483      8.0246714     -1802.7236      253.39412      3194.4208      2683.2073    
    266000  -1811.9978      9.5803354     -1802.4174      302.51714      3813.6917      2683.2073    
    267000  -1812.2902      9.6324225     -1802.6577      304.16189      3834.4263      2683.2073    
    268000  -1810.8846      9.4403188     -1801.4442      298.09585      3757.9546      2683.2073    
    269000  -1809.6308      9.2114453     -1800.4193      290.86874      3666.8458      2683.2073    
    270000  -1809.6101      9.0276808     -1800.5825      285.06603      3593.6938      2683.2073    
    271000  -1810.2743      8.5076995     -1801.7667      268.64664      3386.7022      2683.2073    
    272000  -1812.0614      9.3862464     -1802.6752      296.38842      3736.4298      2683.2073    
    273000  -1809.9238      8.2934177     -1801.6304      261.88029      3301.402       2683.2073    
    274000  -1809.5934      8.7584392     -1800.835       276.56422      3486.5154      2683.2073    
    275000  -1809.8575      8.3397748     -1801.5177      263.3441       3319.8556      2683.2073    
    276000  -1809.956       9.4942966     -1800.4617      299.80031      3779.4418      2683.2073    
    277000  -1811.1145      9.8459841     -1801.2685      310.9055       3919.4398      2683.2073    
    278000  -1811.0451      8.0178228     -1803.0273      253.17786      3191.6946      2683.2073    
    279000  -1811.3426      8.7460527     -1802.5965      276.17309      3481.5847      2683.2073    
    280000  -1811.9069      9.4056803     -1802.5012      297.00208      3744.1659      2683.2073    
    281000  -1810.2025      9.2570599     -1800.9454      292.30911      3685.0038      2683.2073    
    282000  -1810.6864      8.8930736     -1801.7934      280.81556      3540.11        2683.2073    
    283000  -1810.4446      9.0962687     -1801.3483      287.23182      3620.9969      2683.2073    
    284000  -1809.4827      9.0425439     -1800.4402      285.53536      3599.6104      2683.2073    
    285000  -1811.119       8.2881491     -1802.8308      261.71393      3299.3047      2683.2073    
    286000  -1811.1222      8.4104374     -1802.7118      265.57541      3347.9846      2683.2073    
    287000  -1810.0153      9.0734507     -1800.9418      286.5113       3611.9136      2683.2073    
    288000  -1809.951       9.3949766     -1800.556       296.66409      3739.905       2683.2073    
    289000  -1810.3608      9.3344745     -1801.0263      294.75362      3715.8207      2683.2073    
    290000  -1809.882       8.8255478     -1801.0565      278.6833       3513.2297      2683.2073    
    291000  -1811.2728      8.2784689     -1802.9943      261.40825      3295.4512      2683.2073    
    292000  -1811.0688      7.8805224     -1803.1883      248.84234      3137.0387      2683.2073    
    293000  -1810.4981      9.5780941     -1800.92        302.44637      3812.7995      2683.2073    
    294000  -1810.6485      8.7675491     -1801.8809      276.85189      3490.1419      2683.2073    
    295000  -1810.5511      8.690897      -1801.8602      274.43145      3459.6286      2683.2073    
    296000  -1811.5825      10.030233     -1801.5523      316.72351      3992.7847      2683.2073    
    297000  -1810.6848      9.1155238     -1801.5693      287.83984      3628.6619      2683.2073    
    298000  -1811.3137      9.9105502     -1801.4032      312.9443       3945.142       2683.2073    
    299000  -1811.0196      8.803638      -1802.2159      277.99146      3504.5079      2683.2073    
    300000  -1811.1349      8.783934      -1802.3509      277.36927      3496.6643      2683.2073    
    301000  -1811.4243      9.8738615     -1801.5504      311.78578      3930.5371      2683.2073    
    302000  -1810.948       8.6700501     -1802.278       273.77317      3451.3299      2683.2073    
    303000  -1812.2722      9.2941136     -1802.9781      293.47915      3699.754       2683.2073    
    304000  -1811.8079      8.6524197     -1803.1555      273.21646      3444.3117      2683.2073    
    305000  -1812.0379      9.8762865     -1802.1616      311.86236      3931.5024      2683.2073    
    306000  -1811.2107      9.3750597     -1801.8356      296.03517      3731.9766      2683.2073    
    307000  -1811.214       8.9829059     -1802.2311      283.65218      3575.87        2683.2073    
    308000  -1811.6634      8.1643541     -1803.4991      257.80487      3250.025       2683.2073    
    309000  -1811.7289      8.0635579     -1803.6654      254.62204      3209.9006      2683.2073    
    310000  -1810.9607      8.2895192     -1802.6712      261.75719      3299.8501      2683.2073    
    311000  -1811.431       8.7042953     -1802.7267      274.85452      3464.9621      2683.2073    
    312000  -1811.9614      8.5927549     -1803.3686      271.33243      3420.5606      2683.2073    
    313000  -1811.511       8.8299092     -1802.6811      278.82102      3514.9659      2683.2073    
    314000  -1811.0348      8.8248366     -1802.21        278.66085      3512.9466      2683.2073    
    315000  -1809.9619      9.8158344     -1800.1461      309.95347      3907.438       2683.2073    
    316000  -1811.6108      8.3220254     -1803.2888      262.78363      3312.79        2683.2073    
    317000  -1811.1123      9.517224      -1801.595       300.52428      3788.5687      2683.2073    
    318000  -1811.1904      9.6059335     -1801.5845      303.32545      3823.8817      2683.2073    
    319000  -1810.2522      9.095927      -1801.1563      287.22103      3620.8609      2683.2073    
    320000  -1810.4994      9.9169347     -1800.5825      313.1459       3947.6835      2683.2073    
    321000  -1811.5536      8.7539761     -1802.7996      276.42329      3484.7388      2683.2073    
    322000  -1810.4648      9.2395655     -1801.2253      291.75669      3678.0398      2683.2073    
    323000  -1810.5265      9.6051706     -1800.9214      303.30136      3823.578       2683.2073    
    324000  -1810.0342      9.4104709     -1800.6237      297.15335      3746.0729      2683.2073    
    325000  -1810.4296      8.7106857     -1801.7189      275.05632      3467.506       2683.2073    
    326000  -1809.6588      9.1074989     -1800.5513      287.58644      3625.4673      2683.2073    
    327000  -1810.5844      8.413555      -1802.1709      265.67385      3349.2256      2683.2073    
    328000  -1811.0176      8.65896       -1802.3587      273.42298      3446.9152      2683.2073    
    329000  -1811.6885      8.4935201     -1803.195       268.1989       3381.0578      2683.2073    
    330000  -1811.045       7.9888618     -1803.0561      252.26337      3180.1659      2683.2073    
    331000  -1810.1482      8.7283532     -1801.4198      275.6142       3474.5389      2683.2073    
    332000  -1810.8002      9.6588492     -1801.1413      304.99636      3844.9461      2683.2073    
    333000  -1810.2142      9.2612852     -1800.9529      292.44253      3686.6858      2683.2073    
    334000  -1810.2333      8.7144059     -1801.5189      275.17379      3468.9869      2683.2073    
    335000  -1811.4482      9.1979131     -1802.2502      290.44144      3661.459       2683.2073    
    336000  -1810.7044      7.77458       -1802.9298      245.49701      3094.8657      2683.2073    
    337000  -1810.4157      8.6312063     -1801.7845      272.5466       3435.8672      2683.2073    
    338000  -1810.9612      8.0957913     -1802.8654      255.63986      3222.7319      2683.2073    
    339000  -1811.4995      9.4192668     -1802.0802      297.4311       3749.5743      2683.2073    
    340000  -1809.4485      8.0742235     -1801.3743      254.95882      3214.1463      2683.2073    
    341000  -1811.1946      8.6727171     -1802.5219      273.85739      3452.3916      2683.2073    
    342000  -1812.1189      8.5686507     -1803.5502      270.57129      3410.9654      2683.2073    
    343000  -1812.5117      8.7441941     -1803.7675      276.1144       3480.8448      2683.2073    
    344000  -1811.0379      8.0789001     -1802.959       255.10649      3216.0079      2683.2073    
    345000  -1812.1572      9.4513296     -1802.7058      298.44354      3762.3377      2683.2073    
    346000  -1810.8293      9.3569254     -1801.4724      295.46255      3724.7578      2683.2073    
    347000  -1812.3468      9.0816617     -1803.2652      286.77058      3615.1822      2683.2073    
    348000  -1811.9246      9.2225124     -1802.7021      291.21821      3671.2514      2683.2073    
    349000  -1811.6418      8.6975893     -1802.9442      274.64277      3462.2926      2683.2073    
    350000  -1811.1136      8.8766535     -1802.2369      280.29706      3533.5736      2683.2073    
    351000  -1810.8821      9.1466579     -1801.7355      288.82296      3641.0555      2683.2073    
    352000  -1811.5696      8.7405012     -1802.8291      275.9978       3479.3747      2683.2073    
    353000  -1811.772       8.4908819     -1803.2811      268.1156       3380.0075      2683.2073    
    354000  -1810.6649      9.3719611     -1801.293       295.93733      3730.7431      2683.2073    
    355000  -1811.7411      9.0661872     -1802.6749      286.28194      3609.0222      2683.2073    
    356000  -1810.3907      8.6214096     -1801.7692      272.23726      3431.9674      2683.2073    
    357000  -1811.5548      9.3096169     -1802.2452      293.9687       3705.9255      2683.2073    
    358000  -1810.9347      9.1414477     -1801.7933      288.65844      3638.9815      2683.2073    
    359000  -1809.8313      8.8772767     -1800.9541      280.31674      3533.8216      2683.2073    
    360000  -1811.9561      9.6471865     -1802.3089      304.62809      3840.3035      2683.2073    
    361000  -1811.639       8.6692331     -1802.9698      273.74737      3451.0047      2683.2073    
    362000  -1812.0339      9.0146695     -1803.0192      284.65518      3588.5143      2683.2073    
    363000  -1812.3373      10.015915     -1802.3214      316.2714       3987.0852      2683.2073    
    364000  -1811.8325      8.8075259     -1803.025       278.11423      3506.0556      2683.2073    
    365000  -1811.9463      8.3208296     -1803.6254      262.74588      3312.314       2683.2073    
    366000  -1811.3516      8.9404622     -1802.4112      282.31194      3558.9742      2683.2073    
    367000  -1811.3458      8.7485001     -1802.5973      276.25038      3482.5589      2683.2073    
    368000  -1811.7418      8.6235046     -1803.1183      272.30341      3432.8013      2683.2073    
    369000  -1810.2286      9.6840352     -1800.5446      305.79166      3854.972       2683.2073    
    370000  -1811.248       8.7897789     -1802.4583      277.55383      3498.991       2683.2073    
    371000  -1811.5576      8.7298032     -1802.8278      275.65999      3475.1161      2683.2073    
    372000  -1810.8934      8.3087631     -1802.5846      262.36485      3307.5106      2683.2073    
    373000  -1809.9458      9.4714654     -1800.4744      299.07937      3770.3533      2683.2073    
    374000  -1811.2621      8.2465722     -1803.0155      260.40106      3282.754       2683.2073    
    375000  -1810.7144      8.5416974     -1802.1727      269.72019      3400.2359      2683.2073    
    376000  -1811.3658      9.9068286     -1801.459       312.82678      3943.6605      2683.2073    
    377000  -1810.6877      8.8116558     -1801.8761      278.24464      3507.6996      2683.2073    
    378000  -1810.9054      8.7144191     -1802.191       275.1742       3468.9921      2683.2073    
    379000  -1811.0292      9.7382726     -1801.2909      307.50431      3876.5626      2683.2073    
    380000  -1811.2814      9.4949699     -1801.7864      299.82157      3779.7099      2683.2073    
    381000  -1810.7242      8.3298191     -1802.3943      263.02973      3315.8925      2683.2073    
    382000  -1810.869       8.8270438     -1802.042       278.73054      3513.8252      2683.2073    
    383000  -1809.6615      8.7583914     -1800.9031      276.56271      3486.4964      2683.2073    
    384000  -1811.5624      8.7607596     -1802.8017      276.63749      3487.4391      2683.2073    
    385000  -1810.375       8.9544238     -1801.4206      282.75281      3564.532       2683.2073    
    386000  -1811.602       8.4812306     -1803.1208      267.81084      3376.1656      2683.2073    
    387000  -1810.7578      8.969514      -1801.7882      283.22931      3570.539       2683.2073    
    388000  -1810.3365      8.9375002     -1801.399       282.21841      3557.7951      2683.2073    
    389000  -1810.2612      9.1168952     -1801.1443      287.88314      3629.2078      2683.2073    
    390000  -1810.5403      8.793755      -1801.7465      277.67938      3500.5738      2683.2073    
    391000  -1810.6535      9.2039075     -1801.4496      290.63072      3663.8452      2683.2073    
    392000  -1811.2743      8.7973039     -1802.477       277.79145      3501.9865      2683.2073    
    393000  -1811.9254      9.6986101     -1802.2268      306.25189      3860.7739      2683.2073    
    394000  -1810.732       9.108036      -1801.624       287.6034       3625.6811      2683.2073    
    395000  -1810.7912      9.4019494     -1801.3892      296.88427      3742.6807      2683.2073    
    396000  -1811.2337      8.2759564     -1802.9577      261.32892      3294.4511      2683.2073    
    397000  -1810.2028      8.6543726     -1801.5484      273.27812      3445.0891      2683.2073    
    398000  -1811.3712      8.9699951     -1802.4012      283.2445       3570.7305      2683.2073    
    399000  -1810.7711      9.3973376     -1801.3738      296.73864      3740.8449      2683.2073    
    400000  -1810.7245      8.2459341     -1802.4785      260.38091      3282.5         2683.2073    
    401000  -1811.0504      9.150268      -1801.9001      288.93695      3642.4926      2683.2073    
    402000  -1810.8388      8.5167202     -1802.3221      268.93149      3390.2931      2683.2073    
    403000  -1809.9428      9.0233903     -1800.9194      284.93055      3591.9858      2683.2073    
    404000  -1810.3054      9.1252792     -1801.1801      288.14789      3632.5453      2683.2073    
    405000  -1809.4035      8.5581395     -1800.8454      270.23938      3406.7811      2683.2073    
    406000  -1811.3346      8.3714457     -1802.9632      264.34417      3332.463       2683.2073    
    407000  -1810.8755      8.7198185     -1802.1557      275.3447       3471.1415      2683.2073    
    408000  -1809.9152      9.6763475     -1800.2388      305.54891      3851.9117      2683.2073    
    409000  -1810.2181      8.433193      -1801.7849      266.29396      3357.043       2683.2073    
    410000  -1811.0703      8.4776818     -1802.5926      267.69878      3374.7529      2683.2073    
    411000  -1810.3633      9.2862519     -1801.077       293.2309       3696.6244      2683.2073    
    412000  -1809.1519      8.7418889     -1800.41        276.04161      3479.9271      2683.2073    
    413000  -1811.1332      8.5382494     -1802.5949      269.61132      3398.8634      2683.2073    
    414000  -1810.7613      8.9206384     -1801.8406      281.68597      3551.0828      2683.2073    
    415000  -1810.276       9.752946      -1800.5231      307.96765      3882.4037      2683.2073    
    416000  -1810.9347      8.4564534     -1802.4782      267.02845      3366.3024      2683.2073    
    417000  -1811.1845      8.7868483     -1802.3976      277.46129      3497.8244      2683.2073    
    418000  -1811.3876      8.7820204     -1802.6056      277.30884      3495.9025      2683.2073    
    419000  -1810.037       8.4822276     -1801.5547      267.84232      3376.5625      2683.2073    
    420000  -1810.1196      7.9439893     -1802.1756      250.84643      3162.3033      2683.2073    
    421000  -1810.9781      8.7783706     -1802.1998      277.19359      3494.4496      2683.2073    
    422000  -1810.0613      7.8984544     -1802.1629      249.40858      3144.177       2683.2073    
    423000  -1810.1892      9.0395582     -1801.1496      285.44108      3598.4218      2683.2073    
    424000  -1809.119       9.1492206     -1799.9697      288.90388      3642.0757      2683.2073    
    425000  -1810.2407      9.3279894     -1800.9127      294.54884      3713.2391      2683.2073    
    426000  -1809.925       8.681562      -1801.2435      274.13668      3455.9125      2683.2073    
    427000  -1810.5159      8.6373796     -1801.8785      272.74154      3438.3246      2683.2073    
    428000  -1810.6155      9.8115        -1800.804       309.8166       3905.7125      2683.2073    
    429000  -1810.9781      9.1550751     -1801.8231      289.08875      3644.4062      2683.2073    
    430000  -1810.8316      8.2053707     -1802.6262      259.10004      3266.3527      2683.2073    
    431000  -1810.5473      7.5350092     -1803.0123      237.93211      2999.4985      2683.2073    
    432000  -1810.1568      9.0821265     -1801.0746      286.78526      3615.3672      2683.2073    
    433000  -1810.5579      9.5295812     -1801.0284      300.91448      3793.4877      2683.2073    
    434000  -1809.8333      9.4558995     -1800.3774      298.58785      3764.1569      2683.2073    
    435000  -1811.0179      8.6906184     -1802.3273      274.42265      3459.5176      2683.2073    
    436000  -1811.4304      7.9206261     -1803.5097      250.10869      3153.003       2683.2073    
    437000  -1810.5669      8.5971961     -1801.9697      271.47267      3422.3286      2683.2073    
    438000  -1811.8521      9.2287843     -1802.6234      291.41626      3673.748       2683.2073    
    439000  -1812.0117      9.4092356     -1802.6025      297.11434      3745.5812      2683.2073    
    440000  -1811.121       9.1965692     -1801.9244      290.399        3660.924       2683.2073    
    441000  -1811.009       10.219191     -1800.7898      322.69022      4068.0042      2683.2073    
    442000  -1810.9011      9.3001009     -1801.601       293.66821      3702.1374      2683.2073    
    443000  -1810.1617      10.251501     -1799.9102      323.71045      4080.8658      2683.2073    
    444000  -1811.8538      8.5546303     -1803.2992      270.12857      3405.3842      2683.2073    
    445000  -1810.6008      8.0538413     -1802.5469      254.31522      3206.0326      2683.2073    
    446000  -1810.6583      9.2708901     -1801.3874      292.74583      3690.5093      2683.2073    
    447000  -1810.3644      8.9227724     -1801.4416      281.75335      3551.9324      2683.2073    
    448000  -1810.6791      8.4778605     -1802.2013      267.70442      3374.8241      2683.2073    
    449000  -1811.0868      8.8444588     -1802.2423      279.28045      3520.7577      2683.2073    
    450000  -1810.4481      8.9260132     -1801.5221      281.85569      3553.2224      2683.2073    
    451000  -1810.6161      8.6806939     -1801.9354      274.10927      3455.567       2683.2073    
    452000  -1811.695       8.6899143     -1803.0051      274.40042      3459.2374      2683.2073    
    453000  -1810.7766      9.6961883     -1801.0804      306.17542      3859.8098      2683.2073    
    454000  -1810.2216      9.9650017     -1800.2566      314.66371      3966.8178      2683.2073    
    455000  -1810.6468      8.2442739     -1802.4025      260.32849      3281.8391      2683.2073    
    456000  -1810.3753      8.7780068     -1801.5973      277.18211      3494.3048      2683.2073    
    457000  -1811.4628      8.642385      -1802.8204      272.89959      3440.3171      2683.2073    
    458000  -1809.9269      8.5217893     -1801.4051      269.09156      3392.311       2683.2073    
    459000  -1810.3475      9.0905704     -1801.257       287.05189      3618.7285      2683.2073    
    460000  -1809.4944      8.3900975     -1801.1043      264.93314      3339.8878      2683.2073    
    461000  -1810.8294      9.4886943     -1801.3407      299.6234       3777.2117      2683.2073    
    462000  -1810.7902      8.8190781     -1801.9711      278.47901      3510.6543      2683.2073    
    463000  -1810.6771      8.4968869     -1802.1802      268.30521      3382.398       2683.2073    
    464000  -1810.5016      9.4887581     -1801.0128      299.62542      3777.2371      2683.2073    
    465000  -1809.3593      8.4795654     -1800.8798      267.75826      3375.5027      2683.2073    
    466000  -1810.6642      8.8424947     -1801.8217      279.21843      3519.9758      2683.2073    
    467000  -1810.4178      8.6119834     -1801.8058      271.9396       3428.215       2683.2073    
    468000  -1810.3009      8.2818906     -1802.019       261.5163       3296.8133      2683.2073    
    469000  -1810.1994      9.4605895     -1800.7388      298.73594      3766.0239      2683.2073    
    470000  -1811.2895      8.5447748     -1802.7448      269.81737      3401.461       2683.2073    
    471000  -1811.3825      8.8284608     -1802.554       278.77529      3514.3892      2683.2073    
    472000  -1809.1907      9.943167      -1799.2475      313.97423      3958.1259      2683.2073    
    473000  -1811.6388      8.0042095     -1803.6345      252.748        3186.2755      2683.2073    
    474000  -1810.9263      9.2789476     -1801.6474      293.00026      3693.7168      2683.2073    
    475000  -1811.2251      9.052266      -1802.1728      285.84236      3603.4805      2683.2073    
    476000  -1810.3058      9.3910321     -1800.9147      296.53954      3738.3348      2683.2073    
    477000  -1810.7226      8.7993475     -1801.9233      277.85598      3502.8         2683.2073    
    478000  -1811.7118      8.3096032     -1803.4022      262.39138      3307.8451      2683.2073    
    479000  -1811.3919      9.1074793     -1802.2845      287.58582      3625.4595      2683.2073    
    480000  -1811.4922      8.9589258     -1802.5333      282.89496      3566.3241      2683.2073    
    481000  -1810.1277      9.0018168     -1801.1259      284.24933      3583.398       2683.2073    
    482000  -1809.666       8.9009565     -1800.7651      281.06447      3543.248       2683.2073    
    483000  -1810.3944      8.7122358     -1801.6822      275.10526      3468.123       2683.2073    
    484000  -1810.285       8.89975       -1801.3852      281.02638      3542.7677      2683.2073    
    485000  -1811.0951      8.554075      -1802.541       270.11104      3405.1631      2683.2073    
    486000  -1810.3911      8.4334813     -1801.9576      266.30306      3357.1578      2683.2073    
    487000  -1810.1694      9.2437631     -1800.9256      291.88924      3679.7107      2683.2073    
    488000  -1809.2742      8.9657734     -1800.3084      283.11119      3569.05        2683.2073    
    489000  -1810.8519      8.2834301     -1802.5684      261.56491      3297.4262      2683.2073    
    490000  -1809.9249      8.1959229     -1801.729       258.80171      3262.5918      2683.2073    
    491000  -1811.8958      9.0248978     -1802.8709      284.97815      3592.5859      2683.2073    
    492000  -1810.5264      8.1316939     -1802.3947      256.77356      3237.0238      2683.2073    
    493000  -1810.7548      8.7415196     -1802.0132      276.02996      3479.7802      2683.2073    
    494000  -1811.0269      8.8461268     -1802.1807      279.33312      3521.4216      2683.2073    
    495000  -1811.4656      8.6610915     -1802.8045      273.49028      3447.7637      2683.2073    
    496000  -1811.9794      8.6950556     -1803.2844      274.56277      3461.284       2683.2073    
    497000  -1812.235       8.7923006     -1803.4427      277.63346      3499.9948      2683.2073    
    498000  -1810.9332      9.1200118     -1801.8132      287.98156      3630.4484      2683.2073    
    499000  -1810.6514      8.3664644     -1802.2849      264.18688      3330.4801      2683.2073    
    500000  -1811.4874      8.6139813     -1802.8734      272.00269      3429.0103      2683.2073    
    501000  -1810.7297      7.8019745     -1802.9277      246.36205      3105.7708      2683.2073    
    502000  -1810.6678      8.8398116     -1801.828       279.13371      3518.9077      2683.2073    
    503000  -1810.0214      8.14099       -1801.8804      257.0671       3240.7243      2683.2073    
    504000  -1809.99        8.8002413     -1801.1898      277.8842       3503.1558      2683.2073    
    505000  -1810.1         7.9117359     -1802.1883      249.82797      3149.464       2683.2073    
    506000  -1808.8246      8.5968237     -1800.2278      271.46091      3422.1803      2683.2073    
    507000  -1809.6815      9.2346946     -1800.4468      291.60288      3676.1008      2683.2073    
    508000  -1809.9165      8.239413      -1801.6771      260.17499      3279.9041      2683.2073    
    509000  -1809.9218      9.8231136     -1800.0987      310.18332      3910.3356      2683.2073    
    510000  -1809.2942      9.5995426     -1799.6947      303.12365      3821.3376      2683.2073    
    511000  -1808.9958      9.0488349     -1799.9469      285.73401      3602.1147      2683.2073    
    512000  -1809.7863      9.6150646     -1800.1712      303.61378      3827.5165      2683.2073    
    513000  -1809.9126      9.1461262     -1800.7665      288.80617      3640.8439      2683.2073    
    514000  -1810.1609      9.1979948     -1800.9629      290.44402      3661.4915      2683.2073    
    515000  -1809.0741      9.2689871     -1799.8051      292.68574      3689.7518      2683.2073    
    516000  -1809.7175      9.2538864     -1800.4636      292.2089       3683.7405      2683.2073    
    517000  -1810.3874      8.6000264     -1801.7873      271.56204      3423.4552      2683.2073    
    518000  -1810.2956      8.6758875     -1801.6197      273.9575       3453.6536      2683.2073    
    519000  -1810.6112      9.0376931     -1801.5735      285.38219      3597.6794      2683.2073    
    520000  -1810.2837      9.2647182     -1801.019       292.55093      3688.0524      2683.2073    
    521000  -1809.9729      8.8475784     -1801.1253      279.37896      3521.9995      2683.2073    
    522000  -1810.7011      8.9666213     -1801.7345      283.13797      3569.3875      2683.2073    
    523000  -1809.885       9.2393879     -1800.6456      291.75108      3677.969       2683.2073    
    524000  -1811.0127      8.7531167     -1802.2596      276.39616      3484.3967      2683.2073    
    525000  -1810.8522      9.0611644     -1801.791       286.12334      3607.0227      2683.2073    
    526000  -1810.0134      8.6557989     -1801.3576      273.32316      3445.6569      2683.2073    
    527000  -1811.2883      9.1112727     -1802.177       287.70561      3626.9696      2683.2073    
    528000  -1811.2773      9.1798748     -1802.0975      289.87185      3654.2784      2683.2073    
    529000  -1812.0837      9.2789225     -1802.8048      292.99946      3693.7068      2683.2073    
    530000  -1810.1694      9.1935944     -1800.9758      290.30507      3659.7398      2683.2073    
    531000  -1810.9684      8.6724962     -1802.2959      273.85041      3452.3037      2683.2073    
    532000  -1811.3328      8.1195691     -1803.2132      256.3907       3232.1972      2683.2073    
    533000  -1810.9584      9.4380007     -1801.5204      298.02266      3757.0318      2683.2073    
    534000  -1810.0805      8.8531003     -1801.2274      279.55333      3524.1976      2683.2073    
    535000  -1810.2976      8.4088079     -1801.8887      265.52395      3347.3359      2683.2073    
    536000  -1810.8679      8.5398043     -1802.3281      269.66041      3399.4823      2683.2073    
    537000  -1812.0876      9.3923112     -1802.6953      296.57992      3738.844       2683.2073    
    538000  -1810.6699      9.2324871     -1801.4374      291.53318      3675.222       2683.2073    
    539000  -1810.2797      9.5007553     -1800.779       300.00425      3782.0129      2683.2073    
    540000  -1810.6459      8.9611128     -1801.6848      282.96402      3567.1947      2683.2073    
    541000  -1810.3601      8.0991378     -1802.2609      255.74554      3224.064       2683.2073    
    542000  -1811.5165      9.2256697     -1802.2909      291.31791      3672.5082      2683.2073    
    543000  -1810.3405      8.8863898     -1801.4541      280.6045       3537.4494      2683.2073    
    544000  -1810.1832      9.0764955     -1801.1067      286.60745      3613.1256      2683.2073    
    545000  -1810.016       8.6319216     -1801.3841      272.56919      3436.1519      2683.2073    
    546000  -1810.6359      9.1551957     -1801.4807      289.09255      3644.4542      2683.2073    
    547000  -1810.309       8.0779696     -1802.2311      255.07711      3215.6375      2683.2073    
    548000  -1810.7544      9.4245352     -1801.3299      297.59746      3751.6716      2683.2073    
    549000  -1811.3436      8.9686579     -1802.375       283.20227      3570.1982      2683.2073    
    550000  -1812.3864      8.8590447     -1803.5274      279.74103      3526.5639      2683.2073    
    551000  -1812.2099      8.745382      -1803.4645      276.15192      3481.3177      2683.2073    
    552000  -1810.0777      9.9525075     -1800.1252      314.26918      3961.8441      2683.2073    
    553000  -1811.5709      9.4634828     -1802.1074      298.8273       3767.1756      2683.2073    
    554000  -1811.6171      8.9442201     -1802.6728      282.4306       3560.4701      2683.2073    
    555000  -1811.4122      9.0250831     -1802.3872      284.98401      3592.6597      2683.2073    
    556000  -1811.2168      8.7593672     -1802.4575      276.59352      3486.8848      2683.2073    
    557000  -1811.4694      8.3982003     -1803.0712      265.189        3343.1133      2683.2073    
    558000  -1809.8009      8.2046457     -1801.5963      259.07715      3266.0641      2683.2073    
    559000  -1812.1782      9.5895248     -1802.5887      302.80732      3817.3498      2683.2073    
    560000  -1811.5336      8.3306455     -1803.2029      263.05583      3316.2215      2683.2073    
    561000  -1810.8579      9.7180947     -1801.1398      306.86715      3868.5303      2683.2073    
    562000  -1810.7087      9.0946394     -1801.6141      287.18038      3620.3483      2683.2073    
    563000  -1811.2175      9.7502879     -1801.4673      307.88371      3881.3456      2683.2073    
    564000  -1811.0662      8.6801478     -1802.3861      274.09202      3455.3496      2683.2073    
    565000  -1812.7315      8.7298394     -1804.0016      275.66113      3475.1306      2683.2073    
    566000  -1812.0518      8.5034047     -1803.5484      268.51103      3384.9926      2683.2073    
    567000  -1812.2361      9.1750525     -1803.0611      289.71957      3652.3587      2683.2073    
    568000  -1811.5055      8.9498042     -1802.5557      282.60693      3562.693       2683.2073    
    569000  -1811.3166      9.0078221     -1802.3088      284.43896      3585.7885      2683.2073    
    570000  -1811.5927      8.2442351     -1803.3485      260.32726      3281.8236      2683.2073    
    571000  -1812.7373      8.5461591     -1804.1911      269.86108      3402.012       2683.2073    
    572000  -1812.0986      9.1595647     -1802.9391      289.23052      3646.1934      2683.2073    
    573000  -1811.4844      8.8040175     -1802.6804      278.00344      3504.659       2683.2073    
    574000  -1811.1177      7.8952669     -1803.2224      249.30793      3142.9081      2683.2073    
    575000  -1811.5292      9.0050473     -1802.5242      284.35134      3584.6839      2683.2073    
    576000  -1811.0392      8.5230913     -1802.5161      269.13267      3392.8293      2683.2073    
    577000  -1811.9034      9.3983154     -1802.5051      296.76952      3741.2341      2683.2073    
    578000  -1811.3819      9.3616255     -1802.0203      295.61097      3726.6288      2683.2073    
    579000  -1811.5755      8.7306464     -1802.8448      275.68661      3475.4518      2683.2073    
    580000  -1811.6703      8.4060644     -1803.2642      265.43732      3346.2438      2683.2073    
    581000  -1810.4915      8.7647675     -1801.7267      276.76405      3489.0345      2683.2073    
    582000  -1810.0099      9.1349067     -1800.875       288.45189      3636.3777      2683.2073    
    583000  -1810.8927      9.3624303     -1801.5303      295.63638      3726.9492      2683.2073    
    584000  -1811.6104      8.9024035     -1802.708       281.11016      3543.824       2683.2073    
    585000  -1810.3958      8.5564709     -1801.8393      270.18669      3406.1169      2683.2073    
    586000  -1810.2431      9.419922      -1800.8232      297.45179      3749.8351      2683.2073    
    587000  -1810.2548      9.975756      -1800.2791      315.00329      3971.0988      2683.2073    
    588000  -1811.7588      9.1253445     -1802.6335      288.14995      3632.5712      2683.2073    
    589000  -1811.674       8.5974844     -1803.0765      271.48177      3422.4434      2683.2073    
    590000  -1810.5064      10.080571     -1800.4259      318.31302      4012.8229      2683.2073    
    591000  -1810.4115      9.7274219     -1800.6841      307.16168      3872.2432      2683.2073    
    592000  -1810.3521      9.2696266     -1801.0825      292.70593      3690.0063      2683.2073    
    593000  -1810.9195      8.7255964     -1802.1939      275.52715      3473.4415      2683.2073    
    594000  -1810.138       8.4219215     -1801.7161      265.93804      3352.5562      2683.2073    
    595000  -1810.6642      8.3453867     -1802.3188      263.52131      3322.0896      2683.2073    
    596000  -1810.8815      8.6909623     -1802.1905      274.43351      3459.6546      2683.2073    
    597000  -1809.7321      9.3577693     -1800.3743      295.4892       3725.0937      2683.2073    
    598000  -1811.5038      9.2180596     -1802.2857      291.0776       3669.4788      2683.2073    
    599000  -1811.1951      9.1263399     -1802.0688      288.18138      3632.9675      2683.2073    
    600000  -1811.2004      8.5746773     -1802.6258      270.76159      3413.3644      2683.2073    
    601000  -1810.6821      9.6271081     -1801.055       303.99408      3832.3108      2683.2073    
    602000  -1810.7576      9.2956283     -1801.4619      293.52698      3700.3569      2683.2073    
    603000  -1811.0691      8.8913761     -1802.1777      280.76196      3539.4343      2683.2073    
    604000  -1810.4278      8.9021356     -1801.5256      281.10171      3543.7174      2683.2073    
    605000  -1811.1487      8.2110253     -1802.9377      259.2786       3268.6037      2683.2073    
    606000  -1810.8088      9.0210721     -1801.7877      284.85735      3591.063       2683.2073    
    607000  -1810.733       9.0360855     -1801.6969      285.33143      3597.0394      2683.2073    
    608000  -1810.8317      9.1506794     -1801.681       288.94995      3642.6564      2683.2073    
    609000  -1810.5883      8.5033322     -1802.085       268.50874      3384.9637      2683.2073    
    610000  -1811.5953      8.5369388     -1803.0584      269.56993      3398.3417      2683.2073    
    611000  -1810.5373      9.2109414     -1801.3263      290.85283      3666.6452      2683.2073    
    612000  -1809.6063      7.8940083     -1801.7123      249.26819      3142.4071      2683.2073    
    613000  -1810.7396      8.0678339     -1802.6718      254.75706      3211.6027      2683.2073    
    614000  -1812.0926      8.9294434     -1803.1632      281.964        3554.5879      2683.2073    
    615000  -1811.3021      7.5457814     -1803.7563      238.27227      3003.7867      2683.2073    
    616000  -1811.6017      8.8589253     -1802.7428      279.73726      3526.5164      2683.2073    
    617000  -1810.79        9.6619678     -1801.128       305.09484      3846.1875      2683.2073    
    618000  -1810.1348      9.0727241     -1801.0621      286.48836      3611.6244      2683.2073    
    619000  -1810.5407      9.2060532     -1801.3347      290.69848      3664.6993      2683.2073    
    620000  -1810.1863      9.1661698     -1801.0201      289.43908      3648.8227      2683.2073    
    621000  -1811.3472      9.558247      -1801.7889      301.81966      3804.8989      2683.2073    
    622000  -1810.0661      8.8776644     -1801.1884      280.32898      3533.976       2683.2073    
    623000  -1809.8784      8.0377315     -1801.8406      253.80652      3199.6197      2683.2073    
    624000  -1811.6679      9.8161966     -1801.8517      309.9649       3907.5821      2683.2073    
    625000  -1810.401       8.7249037     -1801.6761      275.50528      3473.1658      2683.2073    
    626000  -1810.7341      8.7667234     -1801.9674      276.82581      3489.8132      2683.2073    
    627000  -1810.8404      8.9499988     -1801.8904      282.61308      3562.7705      2683.2073    
    628000  -1810.5498      9.3005905     -1801.2492      293.68367      3702.3323      2683.2073    
    629000  -1810.1357      7.9316119     -1802.2041      250.45559      3157.3762      2683.2073    
    630000  -1811.1034      8.844868      -1802.2585      279.29337      3520.9205      2683.2073    
    631000  -1810.4307      8.8450679     -1801.5856      279.29969      3521.0001      2683.2073    
    632000  -1810.2945      8.1054468     -1802.1891      255.94476      3226.5755      2683.2073    
    633000  -1810.1678      8.406505      -1801.7613      265.45124      3346.4192      2683.2073    
    634000  -1809.6757      9.9400454     -1799.7357      313.87566      3956.8833      2683.2073    
    635000  -1810.0282      9.6402403     -1800.388       304.40875      3837.5383      2683.2073    
    636000  -1811.0204      9.0273472     -1801.9931      285.0555       3593.561       2683.2073    
    637000  -1810.7228      8.7713835     -1801.9514      276.97296      3491.6682      2683.2073    
    638000  -1810.0126      9.8327235     -1800.1799      310.48677      3914.1611      2683.2073    
    639000  -1809.635       9.7774523     -1799.8576      308.74148      3892.159       2683.2073    
    640000  -1809.323       8.5901044     -1800.7329      271.24873      3419.5056      2683.2073    
    641000  -1810.4212      9.067391      -1801.3538      286.31996      3609.5014      2683.2073    
    642000  -1810.2965      9.6943446     -1800.6022      306.1172       3859.0759      2683.2073    
    643000  -1809.1299      9.4007709     -1799.7291      296.84706      3742.2116      2683.2073    
    644000  -1811.7414      8.5066621     -1803.2347      268.61389      3386.2893      2683.2073    
    645000  -1811.478       9.908415      -1801.5696      312.87688      3944.292       2683.2073    
    646000  -1810.3016      9.0865829     -1801.215       286.92598      3617.1412      2683.2073    
    647000  -1810.235       8.4521773     -1801.7829      266.89343      3364.6002      2683.2073    
    648000  -1809.5298      8.7484172     -1800.7814      276.24776      3482.5259      2683.2073    
    649000  -1809.7787      8.7351118     -1801.0435      275.82761      3477.2294      2683.2073    
    650000  -1811.5494      8.7915767     -1802.7578      277.6106       3499.7066      2683.2073    
    651000  -1811.1798      9.4594855     -1801.7203      298.70108      3765.5844      2683.2073    
    652000  -1810.4018      10.003004     -1800.3988      315.86371      3981.9456      2683.2073    
    653000  -1810.9608      8.7113858     -1802.2494      275.07842      3467.7846      2683.2073    
    654000  -1811.1162      8.6450127     -1802.4712      272.98257      3441.3631      2683.2073    
    655000  -1811.7692      9.883189      -1801.886       312.08032      3934.2502      2683.2073    
    656000  -1810.9162      7.9604946     -1802.9557      251.36762      3168.8736      2683.2073    
    657000  -1811.5601      8.180694      -1803.3794      258.32083      3256.5295      2683.2073    
    658000  -1812.0249      8.8346924     -1803.1902      278.97206      3516.8699      2683.2073    
    659000  -1810.9269      9.9087147     -1801.0182      312.88634      3944.4113      2683.2073    
    660000  -1810.5171      8.9296113     -1801.5875      281.9693       3554.6547      2683.2073    
    661000  -1812.1414      8.0747434     -1804.0667      254.97524      3214.3532      2683.2073    
    662000  -1812.1248      8.8369524     -1803.2878      279.04343      3517.7696      2683.2073    
    663000  -1809.624       9.1608403     -1800.4631      289.2708       3646.7012      2683.2073    
    664000  -1810.0022      8.0220457     -1801.9801      253.31121      3193.3756      2683.2073    
    665000  -1811.5357      8.8734923     -1802.6622      280.19724      3532.3152      2683.2073    
    666000  -1810.9746      9.3045277     -1801.6701      293.808        3703.8996      2683.2073    
    667000  -1811.5751      9.4221016     -1802.153       297.52061      3750.7028      2683.2073    
    668000  -1811.491       8.4276589     -1803.0634      266.11921      3354.84        2683.2073    
    669000  -1811.7425      9.1985273     -1802.5439      290.46083      3661.7035      2683.2073    
    670000  -1811.8465      9.5007822     -1802.3457      300.0051       3782.0236      2683.2073    
    671000  -1811.245       9.1746298     -1802.0704      289.70623      3652.1905      2683.2073    
    672000  -1811.9199      8.9647503     -1802.9551      283.07888      3568.6427      2683.2073    
    673000  -1809.997       8.5637313     -1801.4333      270.41595      3409.0071      2683.2073    
    674000  -1812.1562      9.1886584     -1802.9675      290.1492       3657.7749      2683.2073    
    675000  -1810.5899      8.9797787     -1801.6101      283.55343      3574.6251      2683.2073    
    676000  -1810.7787      8.4405897     -1802.3382      266.52752      3359.9875      2683.2073    
    677000  -1811.0507      8.813468      -1802.2373      278.30186      3508.421       2683.2073    
    678000  -1810.609       9.1787012     -1801.4303      289.83479      3653.8112      2683.2073    
    679000  -1811.4021      9.0173943     -1802.3847      284.74122      3589.5989      2683.2073    
    680000  -1811.5897      9.3871193     -1802.2026      296.41598      3736.7772      2683.2073    
    681000  -1810.9378      9.2439434     -1801.6939      291.89493      3679.7825      2683.2073    
    682000  -1811.4941      8.7452727     -1802.7488      276.14847      3481.2742      2683.2073    
    683000  -1811.3794      9.199085      -1802.1804      290.47844      3661.9255      2683.2073    
    684000  -1809.1165      8.3012088     -1800.8153      262.12631      3304.5034      2683.2073    
    685000  -1810.464       8.951451      -1801.5125      282.65893      3563.3486      2683.2073    
    686000  -1810.8753      9.200513      -1801.6748      290.52353      3662.4939      2683.2073    
    687000  -1811.1605      8.9724372     -1802.1881      283.32161      3571.7027      2683.2073    
    688000  -1810.6027      8.9569561     -1801.6457      282.83277      3565.54        2683.2073    
    689000  -1811.0633      9.3772017     -1801.6861      296.10281      3732.8293      2683.2073    
    690000  -1810.7736      8.6731454     -1802.1004      273.87091      3452.5621      2683.2073    
    691000  -1811.3899      8.4014674     -1802.9884      265.29216      3344.4139      2683.2073    
    692000  -1811.6542      9.0678229     -1802.5864      286.3336       3609.6733      2683.2073    
    693000  -1810.7644      8.7944394     -1801.9699      277.701        3500.8462      2683.2073    
    694000  -1810.3719      9.7974286     -1800.5745      309.37227      3900.1111      2683.2073    
    695000  -1810.8631      9.0674079     -1801.7957      286.32049      3609.5081      2683.2073    
    696000  -1810.9584      9.4988968     -1801.4595      299.94557      3781.273       2683.2073    
    697000  -1810.0977      8.4339067     -1801.6638      266.3165       3357.3272      2683.2073    
    698000  -1810.5902      8.6606547     -1801.9295      273.47649      3447.5899      2683.2073    
    699000  -1810.1894      7.7000537     -1802.4893      243.14371      3065.1986      2683.2073    
    700000  -1810.8839      8.5901189     -1802.2938      271.24919      3419.5113      2683.2073    
    701000  -1811.3019      8.2795097     -1803.0223      261.44112      3295.8656      2683.2073    
    702000  -1809.8259      8.4343695     -1801.3915      266.33111      3357.5114      2683.2073    
    703000  -1809.614       9.5151604     -1800.0988      300.45912      3787.7472      2683.2073    
    704000  -1809.8531      7.9299079     -1801.9232      250.40178      3156.6978      2683.2073    
    705000  -1810.8016      8.6361241     -1802.1655      272.70189      3437.8248      2683.2073    
    706000  -1810.8221      8.4664609     -1802.3557      267.34446      3370.2862      2683.2073    
    707000  -1811.163       9.1236184     -1802.0394      288.09544      3631.8841      2683.2073    
    708000  -1810.8636      8.0566887     -1802.8069      254.40513      3207.1661      2683.2073    
    709000  -1810.2008      9.2426769     -1800.9581      291.85494      3679.2783      2683.2073    
    710000  -1810.9397      9.1357344     -1801.804       288.47803      3636.7072      2683.2073    
    711000  -1809.2903      9.0349613     -1800.2554      285.29593      3596.5919      2683.2073    
    712000  -1810.2207      9.5967131     -1800.624       303.0343       3820.2113      2683.2073    
    713000  -1810.6185      8.8288209     -1801.7897      278.78666      3514.5326      2683.2073    
    714000  -1811.101       9.2130129     -1801.8879      290.91824      3667.4698      2683.2073    
    715000  -1811.6318      8.7543926     -1802.8774      276.43644      3484.9046      2683.2073    
    716000  -1810.76        8.4770489     -1802.283       267.67879      3374.501       2683.2073    
    717000  -1810.9169      8.8092213     -1802.1077      278.16776      3506.7305      2683.2073    
    718000  -1810.2044      8.593647      -1801.6107      271.3606       3420.9158      2683.2073    
    719000  -1810.4388      8.5698759     -1801.869       270.60998      3411.4531      2683.2073    
    720000  -1810.9166      8.7362921     -1802.1803      275.86488      3477.6992      2683.2073    
    721000  -1809.8022      8.5627589     -1801.2395      270.38525      3408.62        2683.2073    
    722000  -1809.3707      8.7633948     -1800.6073      276.72071      3488.4881      2683.2073    
    723000  -1811.5208      8.6681249     -1802.8527      273.71238      3450.5635      2683.2073    
    724000  -1810.3822      8.9986518     -1801.3836      284.14939      3582.138       2683.2073    
    725000  -1810.8545      9.0440199     -1801.8104      285.58197      3600.1979      2683.2073    
    726000  -1810.2868      9.2694928     -1801.0174      292.7017       3689.953       2683.2073    
    727000  -1810.6285      9.3628972     -1801.2656      295.65112      3727.135       2683.2073    
    728000  -1810.5735      9.1401115     -1801.4334      288.61625      3638.4496      2683.2073    
    729000  -1811.68        9.5303803     -1802.1496      300.93972      3793.8058      2683.2073    
[...]
   1636000  -1811.7385      9.0287241     -1802.7098      285.09898      3594.1091      2683.2073    
   1637000  -1811.7821      9.0683875     -1802.7137      286.35142      3609.8981      2683.2073    
   1638000  -1811.3391      8.3133849     -1803.0257      262.51079      3309.3504      2683.2073    
   1639000  -1810.9409      8.3867933     -1802.5541      264.8288       3338.5725      2683.2073    
   1640000  -1810.845       9.7150521     -1801.13        306.77108      3867.319       2683.2073    
   1641000  -1811.0489      8.5961329     -1802.4528      271.4391       3421.9053      2683.2073    
   1642000  -1811.8275      7.5342422     -1804.2933      237.90789      2999.1932      2683.2073    
   1643000  -1811.2487      8.6290436     -1802.6197      272.47831      3435.0063      2683.2073    
   1644000  -1811.1669      8.9788466     -1802.188       283.524        3574.2541      2683.2073    
   1645000  -1811.4831      9.0123833     -1802.4707      284.58299      3587.6042      2683.2073    
   1646000  -1811.2823      9.1370985     -1802.1452      288.5211       3637.2502      2683.2073    
   1647000  -1810.1608      8.2535713     -1801.9072      260.62207      3285.5401      2683.2073    
   1648000  -1810.6766      9.3953769     -1801.2812      296.67673      3740.0644      2683.2073    
   1649000  -1810.1238      9.1490031     -1800.9748      288.89701      3641.9891      2683.2073    
   1650000  -1810.4848      8.5300146     -1801.9548      269.35129      3395.5853      2683.2073    
   1651000  -1811.0414      8.0061127     -1803.0352      252.80809      3187.0331      2683.2073    
   1652000  -1810.0458      9.5915659     -1800.4542      302.87177      3818.1623      2683.2073    
   1653000  -1809.6637      9.0746669     -1800.589       286.54971      3612.3978      2683.2073    
   1654000  -1809.8905      9.689948      -1800.2006      305.97837      3857.3258      2683.2073    
   1655000  -1811.5834      9.404688      -1802.1787      296.97075      3743.7709      2683.2073    
   1656000  -1810.8237      9.1491928     -1801.6745      288.903        3642.0647      2683.2073    
   1657000  -1811.9166      8.1646115     -1803.752       257.81299      3250.1275      2683.2073    
   1658000  -1810.2575      8.9254178     -1801.3321      281.83689      3552.9854      2683.2073    
   1659000  -1811.8867      9.1758809     -1802.7108      289.74573      3652.6885      2683.2073    
   1660000  -1811.476       9.1695661     -1802.3064      289.54633      3650.1747      2683.2073    
   1661000  -1811.8984      9.6461267     -1802.2522      304.59463      3839.8816      2683.2073    
   1662000  -1809.5985      8.9572497     -1800.6412      282.84204      3565.6569      2683.2073    
   1663000  -1810.8717      8.8971133     -1801.9746      280.94312      3541.7181      2683.2073    
   1664000  -1811.1856      8.517296      -1802.6683      268.94967      3390.5223      2683.2073    
   1665000  -1811.3073      9.2905328     -1802.0167      293.36608      3698.3286      2683.2073    
   1666000  -1811.7938      10.534672     -1801.2591      332.65211      4193.5892      2683.2073    
   1667000  -1811.3107      10.345658     -1800.9651      326.68364      4118.3474      2683.2073    
   1668000  -1810.7788      8.856176      -1801.9226      279.65045      3525.422       2683.2073    
   1669000  -1811.2477      9.5990042     -1801.6487      303.10665      3821.1233      2683.2073    
   1670000  -1811.1011      8.4965939     -1802.6045      268.29596      3382.2813      2683.2073    
   1671000  -1811.8106      8.9506261     -1802.86        282.63289      3563.0202      2683.2073    
   1672000  -1810.8913      9.4386741     -1801.4526      298.04392      3757.2999      2683.2073    
   1673000  -1812.0288      9.2778379     -1802.7509      292.96521      3693.275       2683.2073    
   1674000  -1811.2989      8.6997355     -1802.5991      274.71054      3463.147       2683.2073    
   1675000  -1811.0473      9.3744533     -1801.6728      296.01603      3731.7352      2683.2073    
   1676000  -1810.2026      9.3643402     -1800.8383      295.69669      3727.7094      2683.2073    
   1677000  -1811.8014      9.5840334     -1802.2173      302.63391      3815.1638      2683.2073    
   1678000  -1811.6145      8.6779181     -1802.9366      274.02162      3454.462       2683.2073    
   1679000  -1811.6388      9.3211293     -1802.3176      294.33222      3710.5083      2683.2073    
   1680000  -1811.0325      9.3183598     -1801.7141      294.24477      3709.4058      2683.2073    
   1681000  -1811.5172      10.05554      -1801.4616      317.52262      4002.8588      2683.2073    
   1682000  -1811.9468      8.7604101     -1803.1864      276.62646      3487.3         2683.2073    
   1683000  -1811.7779      9.1026125     -1802.6752      287.43214      3623.5222      2683.2073    
   1684000  -1812.1559      9.4397296     -1802.7162      298.07725      3757.7201      2683.2073    
   1685000  -1812.392       9.0264224     -1803.3656      285.0263       3593.1928      2683.2073    
   1686000  -1810.8739      9.0426288     -1801.8313      285.53805      3599.6442      2683.2073    
   1687000  -1812.0788      9.3229785     -1802.7558      294.39061      3711.2444      2683.2073    
   1688000  -1811.3784      8.9337352     -1802.4447      282.09952      3556.2964      2683.2073    
   1689000  -1811.7564      8.5850732     -1803.1713      271.08986      3417.5027      2683.2073    
   1690000  -1811.2328      9.3250556     -1801.9077      294.4562       3712.0712      2683.2073    
   1691000  -1810.9263      9.3079948     -1801.6183      293.91748      3705.2797      2683.2073    
   1692000  -1810.995       8.9607864     -1802.0342      282.95372      3567.0648      2683.2073    
   1693000  -1812.0264      8.8819463     -1803.1445      280.46419      3535.6805      2683.2073    
   1694000  -1811.6593      8.5820245     -1803.0773      270.9936       3416.2891      2683.2073    
   1695000  -1812.5227      9.1085517     -1803.4142      287.61968      3625.8864      2683.2073    
   1696000  -1811.2545      8.392104      -1802.8624      264.9965       3340.6865      2683.2073    
   1697000  -1810.9754      8.2627156     -1802.7127      260.91081      3289.1802      2683.2073    
   1698000  -1811.4339      9.2078662     -1802.226       290.75573      3665.421       2683.2073    
   1699000  -1812.2276      8.9925815     -1803.235       283.95771      3579.7216      2683.2073    
   1700000  -1811.7194      8.4556892     -1803.2638      267.00432      3365.9982      2683.2073    
   1701000  -1811.7753      8.604743      -1803.1706      271.71098      3425.3328      2683.2073    
   1702000  -1810.8462      9.3785784     -1801.4677      296.14629      3733.3773      2683.2073    
   1703000  -1811.1448      8.8986776     -1802.2462      280.99251      3542.3408      2683.2073    
   1704000  -1810.6901      8.6206017     -1802.0694      272.21174      3431.6457      2683.2073    
   1705000  -1811.5741      9.0060419     -1802.568       284.38274      3585.0799      2683.2073    
   1706000  -1810.6818      8.3232968     -1802.3585      262.82378      3313.2961      2683.2073    
   1707000  -1811.0098      8.0347187     -1802.9751      253.71138      3198.4204      2683.2073    
   1708000  -1811.1751      8.8351451     -1802.34        278.98635      3517.0501      2683.2073    
   1709000  -1811.37        7.9500553     -1803.42        251.03798      3164.718       2683.2073    
   1710000  -1811.2958      9.2124583     -1802.0834      290.90073      3667.2491      2683.2073    
   1711000  -1810.9509      9.3738624     -1801.577       295.99737      3731.5         2683.2073    
   1712000  -1811.1004      8.4549661     -1802.6454      266.98149      3365.7104      2683.2073    
   1713000  -1810.5633      9.2724011     -1801.2909      292.79354      3691.1108      2683.2073    
   1714000  -1811.0434      9.2233268     -1801.8201      291.24392      3671.5755      2683.2073    
   1715000  -1810.6501      8.7240144     -1801.926       275.47719      3472.8118      2683.2073    
   1716000  -1810.1003      9.1676178     -1800.9326      289.48481      3649.3992      2683.2073    
   1717000  -1810.6095      8.87515       -1801.7343      280.24959      3532.9751      2683.2073    
   1718000  -1811.495       9.3995453     -1802.0954      296.80835      3741.7237      2683.2073    
   1719000  -1810.7629      8.7209943     -1802.0419      275.38183      3471.6095      2683.2073    
   1720000  -1809.9143      9.4444878     -1800.4698      298.2275       3759.6142      2683.2073    
   1721000  -1810.8038      8.1454558     -1802.6584      257.20812      3242.5021      2683.2073    
   1722000  -1811.2757      8.0283092     -1803.2474      253.50899      3195.8689      2683.2073    
   1723000  -1810.8707      9.2318164     -1801.6389      291.512        3674.955       2683.2073    
   1724000  -1811.1675      9.2981609     -1801.8694      293.60695      3701.3651      2683.2073    
   1725000  -1809.7373      9.1705591     -1800.5668      289.57768      3650.57        2683.2073    
   1726000  -1811.8151      8.6583553     -1803.1568      273.40388      3446.6745      2683.2073    
   1727000  -1811.0772      8.2631929     -1802.814       260.92589      3289.3703      2683.2073    
   1728000  -1811.3626      8.6872417     -1802.6754      274.31603      3458.1735      2683.2073    
   1729000  -1811.1035      9.2300763     -1801.8734      291.45705      3674.2623      2683.2073    
   1730000  -1811.3604      8.7464085     -1802.614       276.18433      3481.7263      2683.2073    
   1731000  -1812.9702      8.1495533     -1804.8206      257.3375       3244.1332      2683.2073    
   1732000  -1811.7401      8.8168393     -1802.9233      278.40831      3509.763       2683.2073    
   1733000  -1811.1346      9.1307        -1802.0039      288.31906      3634.7031      2683.2073    
   1734000  -1811.4069      9.5754366     -1801.8314      302.36245      3811.7416      2683.2073    
   1735000  -1812.0641      9.3562139     -1802.7079      295.44008      3724.4746      2683.2073    
   1736000  -1811.7952      8.6740053     -1803.1211      273.89806      3452.9044      2683.2073    
   1737000  -1811.1333      8.0724651     -1803.0608      254.9033       3213.4463      2683.2073    
   1738000  -1811.4983      8.865031      -1802.6333      279.93006      3528.9469      2683.2073    
   1739000  -1811.5082      9.5899279     -1801.9182      302.82004      3817.5102      2683.2073    
   1740000  -1812.1124      8.6076063     -1803.5047      271.80139      3426.4726      2683.2073    
   1741000  -1811.2138      8.4029196     -1802.8108      265.33802      3344.9919      2683.2073    
   1742000  -1811.5273      9.2052545     -1802.322       290.67326      3664.3814      2683.2073    
   1743000  -1811.9738      8.5609932     -1803.4128      270.32949      3407.9171      2683.2073    
   1744000  -1811.4528      8.345732      -1803.1071      263.53221      3322.227       2683.2073    
   1745000  -1810.7182      9.5310839     -1801.1871      300.96193      3794.0859      2683.2073    
   1746000  -1811.4438      9.8230818     -1801.6207      310.18232      3910.323       2683.2073    
   1747000  -1811.3631      9.7302056     -1801.6329      307.24958      3873.3513      2683.2073    
   1748000  -1811.4642      8.2395018     -1803.2247      260.17779      3279.9394      2683.2073    
   1749000  -1811.4476      9.0499456     -1802.3976      285.76909      3602.5568      2683.2073    
   1750000  -1809.8615      9.074815      -1800.7867      286.55438      3612.4567      2683.2073    
   1751000  -1809.6414      8.4651945     -1801.1762      267.30447      3369.782       2683.2073    
   1752000  -1810.3842      9.4260224     -1800.9582      297.64442      3752.2636      2683.2073    
   1753000  -1810.96        8.3578226     -1802.6022      263.914        3327.04        2683.2073    
   1754000  -1811.7014      9.0554095     -1802.646       285.94162      3604.7319      2683.2073    
   1755000  -1811.4039      9.6633216     -1801.7406      305.13759      3846.7264      2683.2073    
   1756000  -1811.063       8.2896168     -1802.7734      261.76027      3299.889       2683.2073    
   1757000  -1811.6863      8.3274582     -1803.3588      262.95518      3314.9527      2683.2073    
   1758000  -1811.6449      9.3622338     -1802.2826      295.63017      3726.8709      2683.2073    
   1759000  -1811.3574      8.7093877     -1802.648       275.01533      3466.9892      2683.2073    
   1760000  -1811.0379      9.4536989     -1801.5842      298.51836      3763.2809      2683.2073    
   1761000  -1811.6515      9.1684547     -1802.483       289.51123      3649.7323      2683.2073    
   1762000  -1811.3695      8.9523856     -1802.4171      282.68844      3563.7206      2683.2073    
   1763000  -1812.7031      9.5651065     -1803.138       302.03626      3807.6295      2683.2073    
   1764000  -1812.035       8.2657088     -1803.7693      261.00533      3290.3718      2683.2073    
   1765000  -1811.5769      8.9916015     -1802.5853      283.92676      3579.3315      2683.2073    
   1766000  -1811.7913      8.8373473     -1802.954       279.05589      3517.9268      2683.2073    
   1767000  -1811.284       9.0600583     -1802.224       286.08841      3606.5824      2683.2073    
   1768000  -1810.6498      9.8562099     -1800.7936      311.2284       3923.5105      2683.2073    
   1769000  -1811.1022      9.2550495     -1801.8472      292.24563      3684.2035      2683.2073    
   1770000  -1811.5396      8.5162203     -1803.0234      268.9157       3390.0941      2683.2073    
   1771000  -1811.801       8.655799      -1803.1452      273.32317      3445.6569      2683.2073    
   1772000  -1810.7161      9.2221962     -1801.4939      291.20822      3671.1255      2683.2073    
   1773000  -1811.2445      8.5986211     -1802.6459      271.51766      3422.8958      2683.2073    
   1774000  -1811.6451      9.1401939     -1802.5049      288.61885      3638.4824      2683.2073    
   1775000  -1812.4942      8.643544      -1803.8506      272.93619      3440.7785      2683.2073    
   1776000  -1811.9624      9.3529537     -1802.6094      295.33714      3723.1768      2683.2073    
   1777000  -1811.1107      8.8453388     -1802.2653      279.30824      3521.108       2683.2073    
   1778000  -1811.5217      8.6312524     -1802.8904      272.54806      3435.8855      2683.2073    
   1779000  -1812.6645      9.582426      -1803.0821      302.58316      3814.524       2683.2073    
   1780000  -1811.627       8.4744542     -1803.1525      267.59686      3373.4681      2683.2073    
   1781000  -1810.3009      8.4315471     -1801.8694      266.24199      3356.3878      2683.2073    
   1782000  -1812.3015      9.2888341     -1803.0126      293.31244      3697.6523      2683.2073    
   1783000  -1811.8035      8.7303474     -1803.0731      275.67717      3475.3328      2683.2073    
   1784000  -1811.8231      8.2916794     -1803.5315      261.8254       3300.71        2683.2073    
   1785000  -1811.2265      8.634319      -1802.5922      272.64489      3437.1063      2683.2073    
   1786000  -1812.114       8.7116864     -1803.4023      275.08791      3467.9043      2683.2073    
   1787000  -1812.0483      8.9934879     -1803.0549      283.98633      3580.0824      2683.2073    
   1788000  -1811.757       9.0266422     -1802.7303      285.03324      3593.2803      2683.2073    
   1789000  -1810.9953      9.1226291     -1801.8727      288.0642       3631.4903      2683.2073    
   1790000  -1811.4029      9.0667836     -1802.3361      286.30078      3609.2596      2683.2073    
   1791000  -1811.6691      8.7961418     -1802.873       277.75475      3501.5239      2683.2073    
   1792000  -1811.7905      8.5394731     -1803.251       269.64996      3399.3505      2683.2073    
   1793000  -1810.6429      9.6494905     -1800.9934      304.70084      3841.2206      2683.2073    
   1794000  -1811.3839      9.240716      -1802.1432      291.79302      3678.4977      2683.2073    
   1795000  -1811.1278      8.5247613     -1802.603       269.1854       3393.4941      2683.2073    
   1796000  -1811.4264      9.179014      -1802.2474      289.84466      3653.9357      2683.2073    
   1797000  -1811.3034      9.3317331     -1801.9716      294.66706      3714.7294      2683.2073    
   1798000  -1810.3755      9.0739299     -1801.3016      286.52644      3612.1044      2683.2073    
   1799000  -1811.467       8.8240534     -1802.6429      278.63611      3512.6348      2683.2073    
   1800000  -1811.1413      8.1335551     -1803.0078      256.83233      3237.7647      2683.2073    
   1801000  -1811.4673      8.4640965     -1803.0032      267.2698       3369.3449      2683.2073    
   1802000  -1810.2871      10.20045      -1800.0867      322.09842      4060.5437      2683.2073    
   1803000  -1811.8205      8.7488945     -1803.0716      276.26283      3482.7159      2683.2073    
   1804000  -1812.0601      8.4606279     -1803.5995      267.16027      3367.9642      2683.2073    
   1805000  -1810.8137      8.2407616     -1802.5729      260.21758      3280.4409      2683.2073    
   1806000  -1810.5534      9.3331462     -1801.2203      294.71168      3715.2919      2683.2073    
   1807000  -1812.5071      9.0005018     -1803.5066      284.2078       3582.8745      2683.2073    
   1808000  -1810.4899      9.6167455     -1800.8732      303.66686      3828.1857      2683.2073    
   1809000  -1809.6273      8.1760353     -1801.4512      258.17372      3254.675       2683.2073    
   1810000  -1810.9973      8.4570276     -1802.5403      267.04658      3366.531       2683.2073    
   1811000  -1812.3252      9.2239328     -1803.1013      291.26306      3671.8168      2683.2073    
   1812000  -1809.7363      9.4252726     -1800.3111      297.62074      3751.9651      2683.2073    
   1813000  -1810.2312      9.2309071     -1801.0003      291.48328      3674.593       2683.2073    
   1814000  -1811.331       10.250436     -1801.0806      323.67684      4080.4421      2683.2073    
   1815000  -1810.1531      9.4996956     -1800.6534      299.97079      3781.591       2683.2073    
   1816000  -1811.2565      8.6771662     -1802.5794      273.99788      3454.1627      2683.2073    
   1817000  -1811.7348      9.8016167     -1801.9332      309.50452      3901.7783      2683.2073    
   1818000  -1810.9235      8.7498049     -1802.1737      276.29158      3483.0783      2683.2073    
   1819000  -1810.9179      9.2613799     -1801.6565      292.44552      3686.7235      2683.2073    
   1820000  -1810.8082      8.905255      -1801.9029      281.20021      3544.9591      2683.2073    
   1821000  -1810.377       8.4107164     -1801.9663      265.58422      3348.0957      2683.2073    
   1822000  -1811.8229      9.021745      -1802.8012      284.8786       3591.3309      2683.2073    
   1823000  -1810.8362      9.0712914     -1801.7649      286.44312      3611.054       2683.2073    
   1824000  -1810.8749      8.1468103     -1802.7281      257.25089      3243.0413      2683.2073    
   1825000  -1810.963       8.6659942     -1802.297       273.6451       3449.7154      2683.2073    
   1826000  -1809.0285      8.7242636     -1800.3043      275.48506      3472.911       2683.2073    
   1827000  -1811.5763      8.6553849     -1802.9209      273.31009      3445.4921      2683.2073    
   1828000  -1810.1993      8.9855227     -1801.2138      283.73481      3576.9117      2683.2073    
   1829000  -1810.3828      8.4162355     -1801.9666      265.75849      3350.2927      2683.2073    
   1830000  -1809.7757      8.0612154     -1801.7145      254.54807      3208.9681      2683.2073    
   1831000  -1811.0255      9.4750576     -1801.5505      299.1928       3771.7833      2683.2073    
