246
Lattice="10.140377177804453 0.0 0.0 0.0 8.781824239934606 0.0 0.0 0.0 30.1311271579" Properties=species:S:1:pos:R:3:momenta:R:3:forces:R:3 target_atoms="0 1 2 3 4 5 6 7 8 9 10 11 12 13 14 15 16 17 18 19 20 21 22 23 24 25 26 27 28 29 30 31 32 33 34 35 36 37 38 39 40 41 42 43 44 45 46 47 48 49 50 51 52 53 54 55 56 57 58 59 60 61 62 63 64 65 66 67 68 69 70 71 72 73 74 75 76 77 78 79 80 81 82 83 84 85 86 87 88 89 90 91 92 93 94 95 96 97 98 99 100 101 102 103 104 105 106 107 108 109 110 111 112 113 114 115 116 117 118 119 120 121 122 123 124 125 126 127 128 129 130 131 132 133 134 135 136 137 138 139 140 141 142 143 144 145 146 147 148 149 150 151 152 153 154 155 156 157 158 159 160 161 162 163 164 165 166 167 168 169 170 171 172 173 174 175 176 177 178 179 180 181 182 183 184 185 186 187 188 189 190 191 192 193 194 195 196 197 198 199 200 201 202 203 204 205 206 207 208 209 210 211 212 213 214 215 216 217 218 219 220 221 222 223 224 225 226 227 228 229 230 231 232 233 234 235 236 237 238 239 240 241 242 243 244 245" step=0 energy=-1802.4834920027356 pbc="T T T"
Cu       7.16707000       1.08284000       9.81302000       0.00000000       0.00000000       0.00000000      -0.16465100       0.25421500       0.25962100
Cu       9.73600000       1.16518000       9.96036000       0.00000000       0.00000000       0.00000000      -0.62446200      -0.08138810      -0.24601000
Cu       2.03809000       0.98635900      10.03730000       0.00000000       0.00000000       0.00000000       0.50970400       0.89416300      -0.16470800
Cu       4.48983000       1.12989000       9.82248000       0.00000000       0.00000000       0.00000000       0.39281800      -0.36022900       0.37655100
Cu       8.38714000       3.30388000       9.92951000       0.00000000       0.00000000       0.00000000       0.15065800       0.01596180      -0.18371700
Cu       0.77804700       3.26952000       9.81889000       0.00000000       0.00000000       0.00000000       0.03836420       0.22876900       0.33952100
Cu       3.25840000       3.33154000       9.91966000       0.00000000       0.00000000       0.00000000       0.01344950      -0.37569000      -0.25371200
Cu       5.68494000       3.26816000       9.94389000       0.00000000       0.00000000       0.00000000       0.87000200      -0.28781200      -0.41412000
Cu       9.82967000       5.51859000       9.66350000       0.00000000       0.00000000       0.00000000      -0.56452700       0.12010500       0.51684500
Cu       2.12156000       5.45967000       9.98078000       0.00000000       0.00000000       0.00000000      -0.01301420       0.38214400      -0.10556200
Cu       4.68674000       5.46392000       9.97247000       0.00000000       0.00000000       0.00000000      -0.30092200       0.13386400      -0.12374800
Cu       7.12655000       5.55992000       9.95598000       0.00000000       0.00000000       0.00000000       0.20237800      -0.30332400      -0.55239500
Cu       0.81868000       7.82110000      10.00020000       0.00000000       0.00000000       0.00000000      -0.17418600      -1.19078000      -0.35181200
Cu       3.46738000       7.57224000       9.97980000       0.00000000       0.00000000       0.00000000      -0.91939100       0.33454100      -0.11815200
Cu       5.84766000       7.74771000       9.83572000       0.00000000       0.00000000       0.00000000       0.30488600      -0.07393340       0.18583900
Cu       8.46883000       7.74256000       9.94673000       0.00000000       0.00000000       0.00000000      -0.15826900      -0.24333900      -0.18894200
Cu       5.91264000       1.71182000      11.95070000       0.00000000       0.00000000       0.00000000      -0.62898200       0.31497100      -0.20919700
Cu       8.35782000       1.80080000      11.98900000       0.00000000       0.00000000       0.00000000      -0.16997600       0.17677900      -0.24048800
Cu       0.65952400       1.91404000      12.00980000       0.00000000       0.00000000       0.00000000       0.63036000      -0.24275000      -0.14278200
Cu       3.37523000       1.85336000      11.93670000       0.00000000       0.00000000       0.00000000      -0.46812600      -0.50246800       0.18018900
Cu       7.10794000       3.90683000      11.83410000       0.00000000       0.00000000       0.00000000      -0.40664400       0.55022300       0.74998200
Cu       9.58179000       4.07769000      12.01120000       0.00000000       0.00000000       0.00000000       0.42801900      -0.20003400      -0.54953900
Cu       2.03679000       3.95882000      11.93080000       0.00000000       0.00000000       0.00000000      -0.30193700       0.35820500       0.30518900
Cu       4.58085000       3.96270000      11.94320000       0.00000000       0.00000000       0.00000000       0.08708720       0.20117800       0.46750700
Cu       8.36312000       6.12014000      11.88530000       0.00000000       0.00000000       0.00000000       0.55121800       0.67656000       0.33881100
Cu       0.81592900       6.28794000      11.94720000       0.00000000       0.00000000       0.00000000      -0.59841400      -0.89274300      -0.12152300
Cu       3.43590000       6.13119000      12.05850000       0.00000000       0.00000000       0.00000000      -0.70821900       0.14360200      -0.57162100
Cu       5.95151000       6.27339000      11.95940000       0.00000000       0.00000000       0.00000000      -0.72429200      -0.43139100       0.05922850
Cu       9.59349000       8.49629000      11.98650000       0.00000000       0.00000000       0.00000000      -0.01666940      -0.58917600       0.07834270
Cu       1.91480000       8.34962000      12.06030000       0.00000000       0.00000000       0.00000000       0.97171800       0.71517600      -0.20071900
Cu       4.51446000       8.36867000      11.97940000       0.00000000       0.00000000       0.00000000       0.17576200       0.35867800      -0.02197970
Cu       7.11241000       8.40261000      11.90720000       0.00000000       0.00000000       0.00000000      -0.02663340      -0.14008200       0.17490500
Cu       5.70396000       0.36590900      14.03060000       0.00000000       0.00000000       0.00000000       0.00000000       0.00000000       0.00000000
Cu       8.23906000       0.36590900      14.03060000       0.00000000       0.00000000       0.00000000       0.00000000       0.00000000       0.00000000
Cu       0.63377400       0.36590900      14.03060000       0.00000000       0.00000000       0.00000000       0.00000000       0.00000000       0.00000000
Cu       3.16887000       0.36590900      14.03060000       0.00000000       0.00000000       0.00000000       0.00000000       0.00000000       0.00000000
Cu       6.97151000       2.56137000      14.03060000       0.00000000       0.00000000       0.00000000       0.00000000       0.00000000       0.00000000
Cu       9.50660000       2.56137000      14.03060000       0.00000000       0.00000000       0.00000000       0.00000000       0.00000000       0.00000000
Cu       1.90132000       2.56137000      14.03060000       0.00000000       0.00000000       0.00000000       0.00000000       0.00000000       0.00000000
Cu       4.43642000       2.56137000      14.03060000       0.00000000       0.00000000       0.00000000       0.00000000       0.00000000       0.00000000
Cu       8.23906000       4.75682000      14.03060000       0.00000000       0.00000000       0.00000000       0.00000000       0.00000000       0.00000000
Cu       0.63377400       4.75682000      14.03060000       0.00000000       0.00000000       0.00000000       0.00000000       0.00000000       0.00000000
Cu       3.16887000       4.75682000      14.03060000       0.00000000       0.00000000       0.00000000       0.00000000       0.00000000       0.00000000
Cu       5.70396000       4.75682000      14.03060000       0.00000000       0.00000000       0.00000000       0.00000000       0.00000000       0.00000000
Cu       9.50660000       6.95228000      14.03060000       0.00000000       0.00000000       0.00000000       0.00000000       0.00000000       0.00000000
Cu       1.90132000       6.95228000      14.03060000       0.00000000       0.00000000       0.00000000       0.00000000       0.00000000       0.00000000
Cu       4.43642000       6.95228000      14.03060000       0.00000000       0.00000000       0.00000000       0.00000000       0.00000000       0.00000000
Cu       6.97151000       6.95228000      14.03060000       0.00000000       0.00000000       0.00000000       0.00000000       0.00000000       0.00000000
Cu       6.97151000       1.09773000      16.10050000       0.00000000       0.00000000       0.00000000       0.00000000       0.00000000       0.00000000
Cu       9.50660000       1.09773000      16.10050000       0.00000000       0.00000000       0.00000000       0.00000000       0.00000000       0.00000000
Cu       1.90132000       1.09773000      16.10050000       0.00000000       0.00000000       0.00000000       0.00000000       0.00000000       0.00000000
Cu       4.43642000       1.09773000      16.10050000       0.00000000       0.00000000       0.00000000       0.00000000       0.00000000       0.00000000
Cu       8.23906000       3.29318000      16.10050000       0.00000000       0.00000000       0.00000000       0.00000000       0.00000000       0.00000000
Cu       0.63377400       3.29318000      16.10050000       0.00000000       0.00000000       0.00000000       0.00000000       0.00000000       0.00000000
Cu       3.16887000       3.29318000      16.10050000       0.00000000       0.00000000       0.00000000       0.00000000       0.00000000       0.00000000
Cu       5.70396000       3.29318000      16.10050000       0.00000000       0.00000000       0.00000000       0.00000000       0.00000000       0.00000000
Cu       9.50660000       5.48864000      16.10050000       0.00000000       0.00000000       0.00000000       0.00000000       0.00000000       0.00000000
Cu       1.90132000       5.48864000      16.10050000       0.00000000       0.00000000       0.00000000       0.00000000       0.00000000       0.00000000
Cu       4.43642000       5.48864000      16.10050000       0.00000000       0.00000000       0.00000000       0.00000000       0.00000000       0.00000000
Cu       6.97151000       5.48864000      16.10050000       0.00000000       0.00000000       0.00000000       0.00000000       0.00000000       0.00000000
Cu       0.63377400       7.68410000      16.10050000       0.00000000       0.00000000       0.00000000       0.00000000       0.00000000       0.00000000
Cu       3.16887000       7.68410000      16.10050000       0.00000000       0.00000000       0.00000000       0.00000000       0.00000000       0.00000000
Cu       5.70396000       7.68410000      16.10050000       0.00000000       0.00000000       0.00000000       0.00000000       0.00000000       0.00000000
Cu       8.23906000       7.68410000      16.10050000       0.00000000       0.00000000       0.00000000       0.00000000       0.00000000       0.00000000
Cu       5.68260000       1.89962000      18.12910000       0.00000000       0.00000000       0.00000000      -0.37469300      -0.10238900       0.33758300
Cu       8.19977000       1.79040000      18.05450000       0.00000000       0.00000000       0.00000000      -0.01196590       0.03171670       0.72422900
Cu       0.51666400       1.86803000      18.21610000       0.00000000       0.00000000       0.00000000       0.50666100      -0.14209900      -0.09536900
Cu       2.98190000       1.79266000      18.17070000       0.00000000       0.00000000       0.00000000       0.61624600       0.57172700       0.14867200
Cu       7.00247000       4.04286000      18.06860000       0.00000000       0.00000000       0.00000000      -0.80363600      -0.09045630       0.54696700
Cu       9.39978000       3.97311000      18.20900000       0.00000000       0.00000000       0.00000000       0.69194100       0.29836500      -0.25119100
Cu       1.85394000       4.08640000      18.21020000       0.00000000       0.00000000       0.00000000      -0.05762190      -0.42133600      -0.18477200
Cu       4.36058000       4.07087000      18.21030000       0.00000000       0.00000000       0.00000000       0.19134700      -0.10938500      -0.15698700
Cu       8.25104000       6.17648000      18.09250000       0.00000000       0.00000000       0.00000000      -0.03032090       0.65211400       0.32259000
Cu       0.68203200       6.25871000      18.11380000       0.00000000       0.00000000       0.00000000      -0.34251300      -0.11540700       0.40009200
Cu       3.24825000       6.34748000      18.17410000       0.00000000       0.00000000       0.00000000      -0.28346000      -0.86683300      -0.24464200
Cu       5.69324000       6.19751000      18.24290000       0.00000000       0.00000000       0.00000000       0.22743600      -0.00870476      -0.15100700
Cu       9.45007000       8.41471000      18.20630000       0.00000000       0.00000000       0.00000000       0.15524200      -0.17873100      -0.17222700
Cu       1.97304000       8.34841000      18.12460000       0.00000000       0.00000000       0.00000000      -0.45700000       0.59340800       0.07369530
Cu       4.48712000       8.42920000      18.10810000       0.00000000       0.00000000       0.00000000      -0.59628600       0.39406700       0.44965700
Cu       6.80192000       8.47128000      18.27240000       0.00000000       0.00000000       0.00000000       1.20021000      -0.26825400      -0.72081700
Cu       5.77542000       0.40776600      20.30620000       0.00000000       0.00000000       0.00000000      -0.63757300       0.15295600      -0.34158300
Cu       8.21832000       0.35750600      20.19490000       0.00000000       0.00000000       0.00000000       0.51610700       0.27080700       0.08172720
Cu       0.80334000       0.31202800      20.09780000       0.00000000       0.00000000       0.00000000      -0.74397000       0.25014700       0.18463300
Cu       3.24518000       0.51014400      20.21010000       0.00000000       0.00000000       0.00000000       0.12155100      -0.61797100      -0.07719490
Cu       7.02821000       2.57903000      20.13120000       0.00000000       0.00000000       0.00000000      -0.27083500       0.13301000       0.08236580
Cu       9.50283000       2.60999000      20.25910000       0.00000000       0.00000000       0.00000000      -0.19457600      -0.25432200      -0.26864200
Cu       1.97782000       2.64309000      20.36840000       0.00000000       0.00000000       0.00000000      -0.61362500      -0.04965280      -0.44883700
Cu       4.39636000       2.66171000      20.19680000       0.00000000       0.00000000       0.00000000       0.40881000      -0.10417000      -0.10290300
Cu       8.12149000       4.84181000      20.12610000       0.00000000       0.00000000       0.00000000       0.15951200      -0.48370300       0.20192900
Cu       0.53010400       4.83590000      20.18150000       0.00000000       0.00000000       0.00000000       0.13511900      -0.21540400      -0.04203490
Cu       3.00642000       4.91940000      20.17550000       0.00000000       0.00000000       0.00000000       0.84624400      -0.67599400       0.17262300
Cu       5.63324000       4.79341000      20.36230000       0.00000000       0.00000000       0.00000000       0.02248830       0.09991780      -0.49790500
Cu       9.49395000       6.89346000      20.26850000       0.00000000       0.00000000       0.00000000       0.06945160       0.68368200      -0.39099300
Cu       1.95577000       6.97671000      20.23230000       0.00000000       0.00000000       0.00000000      -0.63938200       0.42281900       0.00965956
Cu       4.35791000       7.04349000      20.24680000       0.00000000       0.00000000       0.00000000       0.65537200      -0.00129534       0.05003130
Cu       7.01586000       7.00066000      20.20490000       0.00000000       0.00000000       0.00000000      -0.37754200      -0.09867910       0.08056540
O        9.25130000       6.50623000      26.73940000       0.00000000       0.00000000       0.00000000       1.41193000       1.00682000      -1.41104000
H        8.54906000       6.17267000      27.25210000       0.00000000       0.00000000       0.00000000      -1.61089000      -0.60913600       0.85416100
H        9.03347000       7.41607000      26.42730000       0.00000000       0.00000000       0.00000000       0.13272900      -0.57510400       0.57727700
O        6.43841000       8.22748000       1.02287000       0.00000000       0.00000000       0.00000000       1.10806000       0.24485600       0.24266600
H        5.78868000       7.78710000       0.49490500       0.00000000       0.00000000       0.00000000      -0.81065300      -0.83913600      -0.83093000
H        5.95400000       0.01280400       1.64629000       0.00000000       0.00000000       0.00000000      -0.06027960       0.23549300       0.42044200
O        2.49767000       0.62763000      29.20090000       0.00000000       0.00000000       0.00000000      -0.99656200       0.75623400      -0.31554300
H        2.64033000       1.45431000      25.68990000       0.00000000       0.00000000       0.00000000       0.92247500       0.05397500      -0.87947300
H        3.44260000       0.54770700      29.23530000       0.00000000       0.00000000       0.00000000       0.83998200      -0.29696100       0.03335060
O        5.41897000       8.02910000      27.01000000       0.00000000       0.00000000       0.00000000      -0.58336800       0.39951100       1.52058000
H        5.52195000       8.73262000      27.72100000       0.00000000       0.00000000       0.00000000      -0.13952900      -0.40976400      -1.02424000
H        6.12342000       8.11830000      26.37550000       0.00000000       0.00000000       0.00000000       0.35044100      -0.05838830      -0.44698200
O        3.95408000       3.43632000      27.49340000       0.00000000       0.00000000       0.00000000      -0.16583700       0.42855700      -0.57049500
H        3.39004000       3.97146000      28.11680000       0.00000000       0.00000000       0.00000000       0.19275300      -0.13584200      -0.26493800
H        3.75922000       3.76436000      26.57910000       0.00000000       0.00000000       0.00000000       0.12216000      -0.37668800       1.26785000
O        3.54921000       2.29659000      23.94230000       0.00000000       0.00000000       0.00000000      -1.03700000       2.12033000       0.29208500
H        7.40137000       7.10945000      24.18900000       0.00000000       0.00000000       0.00000000       0.73772000      -0.81142000       0.06011300
H        4.32248000       1.99731000      23.50330000       0.00000000       0.00000000       0.00000000       1.45739000      -1.49345000      -0.80475100
O        3.14085000       3.79656000       1.46494000       0.00000000       0.00000000       0.00000000       0.69960800      -0.07362350      -0.92580800
H        1.14701000       4.74487000       3.95675000       0.00000000       0.00000000       0.00000000      -1.95401000      -0.50948900       1.17217000
H        2.99478000       4.25086000       2.28034000       0.00000000       0.00000000       0.00000000      -0.34490400       1.20540000       1.19086000
O        6.93483000       7.71370000      24.78710000       0.00000000       0.00000000       0.00000000       0.03459300      -0.16677600      -0.28668600
H        2.38552000       6.60337000       6.22413000       0.00000000       0.00000000       0.00000000       0.24039900       0.10956700      -0.09534420
H        6.46487000       8.20532000      24.08950000       0.00000000       0.00000000       0.00000000      -0.62841100       0.79083500       0.07109230
O        8.84318000       0.59680000      26.12570000       0.00000000       0.00000000       0.00000000      -1.66551000      -0.95592900      -1.48197000
H        7.97269000       0.20266400      25.77360000       0.00000000       0.00000000       0.00000000       1.28513000       0.71422000       0.76896500
H        0.18260700       1.18772000      23.05470000       0.00000000       0.00000000       0.00000000      -0.84810100      -2.30266000       0.07121970
O        9.92776000       0.23893700      23.28070000       0.00000000       0.00000000       0.00000000       0.27313600       2.29584000      -0.71773300
H        9.49362000      -0.09223320      22.44970000       0.00000000       0.00000000       0.00000000       0.42999100       0.54997900       0.58637500
H        0.45895200       6.62093000      27.76620000       0.00000000       0.00000000       0.00000000      -0.30970600       0.18778000      -0.88602400
O        1.64190000       7.10830000       5.84063000       0.00000000       0.00000000       0.00000000       1.59708000       0.30477100      -0.76958800
H        0.87947900       6.68559000       6.21249000       0.00000000       0.00000000       0.00000000      -1.67533000      -0.58623100       0.66064200
H        1.96722000       0.34890100       2.60121000       0.00000000       0.00000000       0.00000000      -0.69069300      -0.87647300      -0.29457600
O        8.11374000       3.87254000       6.75034000       0.00000000       0.00000000       0.00000000       0.22424900      -0.77201300       1.17379000
H        7.13858000       3.64638000       6.72588000       0.00000000       0.00000000       0.00000000       0.65862300       0.69455600       0.17128900
H        8.41701000       3.65032000       7.69755000       0.00000000       0.00000000       0.00000000      -0.54669300       0.18020800      -1.44243000
O        1.89474000       5.10112000       3.53417000       0.00000000       0.00000000       0.00000000       2.40555000       0.69529300      -1.60434000
H        3.71549000       3.28137000      23.81030000       0.00000000       0.00000000       0.00000000      -0.61894500      -0.58524300       0.40549300
H        2.21032000       5.87402000       4.01031000       0.00000000       0.00000000       0.00000000      -0.29176200      -0.10247100       0.26916600
O        7.73907000       5.73799000       2.48274000       0.00000000       0.00000000       0.00000000       0.82902200       0.63728400       0.09719870
H        6.96647000       5.81307000       1.91690000       0.00000000       0.00000000       0.00000000      -0.09672160      -0.34667300      -0.21736300
H        8.55240000       5.88408000       1.90610000       0.00000000       0.00000000       0.00000000      -0.87604300      -0.58918600       0.63748800
O        1.86386000       1.28937000      26.20920000       0.00000000       0.00000000       0.00000000      -0.31074400      -0.63020800       1.03379000
H        2.85828000       2.92602000       1.71526000       0.00000000       0.00000000       0.00000000      -0.37901500      -1.43900000      -0.18292800
H        2.22588000       1.06226000      27.09280000       0.00000000       0.00000000       0.00000000      -0.38167800       0.14296600      -0.14281300
O        9.53209000       6.23079000       7.11404000       0.00000000       0.00000000       0.00000000       0.83346700      -0.22136100       0.35901400
H        8.87369000       6.91249000       6.95072000       0.00000000       0.00000000       0.00000000      -0.47920300       0.56937000      -0.21200500
O        9.02844000       3.17051000      27.51220000       0.00000000       0.00000000       0.00000000      -0.29749900       0.68251000       0.37990800
H        8.08129000       3.49520000      27.62130000       0.00000000       0.00000000       0.00000000       0.81958000       0.04022990       0.00895907
H        8.96578000       2.37946000      26.98810000       0.00000000       0.00000000       0.00000000       0.07613680      -0.94313400      -0.21976800
O        6.87865000       4.42416000      27.93210000       0.00000000       0.00000000       0.00000000       2.03349000       0.76233300      -0.84479800
H        6.27964000       4.41283000      27.19630000       0.00000000       0.00000000       0.00000000      -1.01352000       0.01610440      -0.92001900
H        6.43614000       4.19868000      28.70890000       0.00000000       0.00000000       0.00000000      -1.38012000      -0.44847400       2.18291000
O        4.09721000       4.94866000      23.40510000       0.00000000       0.00000000       0.00000000       0.55327000      -1.26588000       0.40221000
H        3.87098000       5.50169000      22.67690000       0.00000000       0.00000000       0.00000000      -0.43137400       0.67728200      -1.27707000
H        4.13723000       5.52377000      24.16070000       0.00000000       0.00000000       0.00000000      -0.33201100       0.56184500       0.97809900
H        9.06655000       5.40750000       6.92847000       0.00000000       0.00000000       0.00000000      -0.39916100      -0.40969500      -0.11121100
O        1.00589000       6.85589000      28.53440000       0.00000000       0.00000000       0.00000000       0.03882230      -0.20798300       0.89646100
H        0.33323100       6.72529000      29.22740000       0.00000000       0.00000000       0.00000000       0.41869200       0.29866900       0.24519500
H        9.79453000       6.92237000       1.17220000       0.00000000       0.00000000       0.00000000       0.30488400       0.84296600      -0.00766087
O       10.04780000       5.98819000       1.28603000       0.00000000       0.00000000       0.00000000      -0.72617300      -0.87034400      -1.28539000
H        0.64669500       5.90054000       1.86274000       0.00000000       0.00000000       0.00000000       0.96095500       0.23977500       1.07755000
H        9.30952000       0.56691300      25.26600000       0.00000000       0.00000000       0.00000000       0.47633700       0.12755700       0.19274900
O        0.32094800       0.33208500       6.90728000       0.00000000       0.00000000       0.00000000       1.23290000      -0.82674100       1.21335000
H        0.28946400       0.05695730       7.88022000       0.00000000       0.00000000       0.00000000      -0.42786600       0.74401300      -1.02843000
H        1.16666000       8.61370000       6.70340000       0.00000000       0.00000000       0.00000000      -1.06128000       0.30436400      -0.24016000
O        2.55008000       1.10623000       2.61250000       0.00000000       0.00000000       0.00000000      -0.11148200       2.17921000       1.71088000
H        2.17916000       1.59942000       3.44405000       0.00000000       0.00000000       0.00000000       0.77374200      -0.74625300      -1.47435000
O        1.51635000       2.09682000       4.93210000       0.00000000       0.00000000       0.00000000       0.78040400      -0.75001600      -0.22016900
H        1.06812000       1.27062000       5.18172000       0.00000000       0.00000000       0.00000000      -0.45771200       0.61392000       0.26044500
H        0.87396300       5.69726000      23.77230000       0.00000000       0.00000000       0.00000000       0.25039900       0.04461190      -0.80688300
O        0.51007600       4.78223000      23.55390000       0.00000000       0.00000000       0.00000000      -0.25782700       0.83633300       0.09616960
H        5.06867000       3.87813000       1.04426000       0.00000000       0.00000000       0.00000000       0.57034700       0.46244400      -0.24570300
H        0.47000900       4.48924000      24.46850000       0.00000000       0.00000000       0.00000000       0.10299000      -0.91878700       0.48543700
O        6.05410000       3.87069000       0.93566000       0.00000000       0.00000000       0.00000000      -1.13752000      -1.97318000       0.93976200
H        0.96803900       2.85441000       5.12602000       0.00000000       0.00000000       0.00000000      -0.65338400       0.06265790      -0.02811710
H        6.22916000       3.07562000       1.53468000       0.00000000       0.00000000       0.00000000       0.41441200       1.47748000      -1.04326000
O        1.31100000       2.49894000      22.36130000       0.00000000       0.00000000       0.00000000       1.93692000      -0.34055400       0.95150800
H        1.12567000       3.42588000      22.61700000       0.00000000       0.00000000       0.00000000      -0.54407800       0.44114200       0.28758000
H        2.22642000       2.37095000      22.84570000       0.00000000       0.00000000       0.00000000      -1.33489000      -0.23304800      -0.42936900
O        7.82759000       2.13264000       2.33461000       0.00000000       0.00000000       0.00000000       0.69988300       0.58619300      -0.70664700
H        8.13791000       1.29294000       2.68350000       0.00000000       0.00000000       0.00000000      -0.11895000      -0.72535500       0.35388500
H        7.66815000       3.79706000      23.84440000       0.00000000       0.00000000       0.00000000       0.52629900       2.51756000      -0.64477000
O        7.58366000       2.89049000      24.00960000       0.00000000       0.00000000       0.00000000      -1.85808000      -2.11255000      -1.13138000
H        9.28959000       0.40808700       0.82415000       0.00000000       0.00000000       0.00000000      -0.10205600      -0.66974300      -0.17211800
O        9.05190000       8.26112000       0.64562500       0.00000000       0.00000000       0.00000000       0.25429300       0.62772400      -0.15042100
H        8.58483000       2.45298000       1.79973000       0.00000000       0.00000000       0.00000000      -0.47328800       0.22700700       0.16120300
H        8.06974000       8.21618000       0.75331500       0.00000000       0.00000000       0.00000000      -0.18572000       0.22837800      -0.04329120
O        2.71736000       4.98639000      29.34350000       0.00000000       0.00000000       0.00000000       0.23041100       2.45704000      -4.04938000