246
Lattice="10.140377178 0.0 0.0 0.0 8.78182424 0.0 0.0 0.0 30.131127158" Properties=species:S:1:pos:R:3:initial_charges:R:1:forces:R:3 stress="0.005974547297550979 -0.0004470044005775072 0.0003911678599373556 -0.0004470044005775072 0.002898500664478052 -0.0004592876905372454 0.0003911678599373556 -0.0004592876905372454 -0.0045000968722162" free_energy=-1800.57367805 energy=-1813.0707460089754 pbc="T T T"
Cu       7.01495000       1.04875000       9.67224000      -0.04881600       0.32673200       0.65605300       0.29067800
Cu       9.40692000       1.09900000      10.02230000      -0.08825600       0.42724000       0.21963100      -0.65903400
Cu       1.85312000       1.10239000      10.03770000      -0.11637000       0.25383800       0.17568100      -0.63311300
Cu       4.71146000       1.05583000      10.04350000      -0.11886700      -1.24388700       0.40655200      -0.53617000
Cu       8.21255000       3.33776000       9.88346000      -0.07295800       0.40915500       0.11535500      -0.06185000
Cu       0.63961000       3.32290000       9.90300000      -0.11741900      -0.13907200      -0.03940400       0.38953400
Cu       3.22852000       3.28437000       9.92187000      -0.08511700      -0.10393700      -0.06973100       0.25504000
Cu       5.83975000       3.29489000      10.03600000      -0.13231500      -0.64068100       0.12763200      -0.42048200
Cu       9.41439000       5.56780000       9.95239000      -0.08432000       0.18613200      -0.29230100      -0.55809900
Cu       1.77969000       5.56352000       9.87424000      -0.09487200       0.57363500      -0.03712800       0.26563600
Cu       4.46069000       5.51264000      10.00790000      -0.10246000      -0.22892600       0.19177200      -0.27304800
Cu       6.97663000       5.57604000       9.75922000      -0.08605300      -0.05210400      -0.45993700       0.40622400
Cu       0.58819000       7.73557000       9.82403000      -0.06376000       0.17506200       0.02631600       0.36627500
Cu       3.27776000       7.88339000       9.81483000      -0.09751100      -0.32171800      -0.80690200       0.18816300
Cu       5.85084000       7.69137000       9.73198000      -0.10893800      -0.86853500      -0.19649800       0.19558500
Cu       8.23174000       7.73553000       9.81049000      -0.09069600       0.44582700      -0.31877800       0.25572400
Cu       5.73308000       1.79764000      12.00280000      -0.01763600      -0.06968800       0.43984700       0.31587300
Cu       8.21562000       2.00750000      11.94810000       0.00611500      -0.11740400      -0.74731800       0.08798900
Cu       0.56398000       1.79305000      11.92630000      -0.00386200       0.33572800       0.43440500       0.58823300
Cu       3.12416000       1.80194000      12.00210000       0.00577200       0.33261500       0.08982000      -0.20266600
Cu       6.99017000       4.08641000      11.99730000      -0.00577900      -0.30129800       0.05695400      -0.11726200
Cu       9.52784000       4.09004000      11.96670000      -0.00200400      -0.09953800      -0.46653100      -0.09061600
Cu       1.89768000       4.05500000      11.95320000       0.00897500      -0.08083200      -0.16324600      -0.12460400
Cu       4.38969000       4.02784000      11.98170000      -0.00368100       0.35568400      -0.04227400       0.01215900
Cu       8.19298000       6.19533000      12.00070000      -0.00285400      -0.01701200       0.60902200      -0.29275100
Cu       0.48310000       6.21882000      11.91020000       0.00473100       0.89659100       0.53673400       0.36079700
Cu       3.10533000       6.22948000      12.03010000      -0.00622300       0.19298700      -0.29790800      -0.64679800
Cu       5.76684000       6.27165000      11.93090000      -0.00322000      -0.36066200      -0.13331000       0.06963300
Cu       9.42566000       8.48356000      12.01380000       0.00141900       0.28239700      -0.48382400      -0.28729500
Cu       1.95115000       8.34804000      11.94580000      -0.00393900      -0.67612700       0.18098900      -0.04331000
Cu       4.40272000       8.32284000      11.94780000       0.00910500       0.44224700       0.38106500       0.09807600
Cu       6.96872000       8.50358000      11.79630000       0.01961200      -0.03363000      -0.20987300       0.59770900
Cu       5.70396000       0.36591000      14.03060000      -0.01463400       0.02456300      -0.15116300      -0.07896400
Cu       8.23906000       0.36591000      14.03060000      -0.01075100      -0.20057500       0.11278600      -0.04015300
Cu       0.63377000       0.36591000      14.03060000       0.00939600       0.07789900      -0.02498700      -0.03867400
Cu       3.16887000       0.36591000      14.03060000      -0.03481600       0.01649000      -0.08124000       0.05243400
Cu       6.97151000       2.56137000      14.03060000      -0.01825900      -0.03462900       0.02402000       0.17176500
Cu       9.50660000       2.56137000      14.03060000      -0.01418100       0.04200700       0.00345300       0.00168400
Cu       1.90132000       2.56137000      14.03060000      -0.01828500      -0.11664300       0.01144800      -0.02429300
Cu       4.43642000       2.56137000      14.03060000      -0.01778300      -0.00807600      -0.03049200       0.07516500
Cu       8.23906000       4.75682000      14.03060000      -0.00522800       0.05151700      -0.06185200       0.21509100
Cu       0.63377000       4.75682000      14.03060000      -0.01598500       0.07820300       0.03711400       0.00824600
Cu       3.16887000       4.75682000      14.03060000      -0.04097300      -0.04296600      -0.09339500       0.18584700
Cu       5.70396000       4.75682000      14.03060000       0.01466900      -0.06282700       0.05263300      -0.00893300
Cu       9.50660000       6.95228000      14.03060000      -0.03778100      -0.00319800       0.02566800       0.04510000
Cu       1.90132000       6.95228000      14.03060000      -0.01147500      -0.20614300      -0.02066300       0.08564800
Cu       4.43642000       6.95228000      14.03060000      -0.01312300       0.06595200      -0.04928800       0.06623000
Cu       6.97151000       6.95228000      14.03060000       0.01501000      -0.04217100       0.17029300      -0.09719500
Cu       6.97151000       1.09773000      16.10050000      -0.01221000       0.03006100       0.00525500       0.11480200
Cu       9.50660000       1.09773000      16.10050000      -0.01052300       0.05132300      -0.02182200       0.00784200
Cu       1.90132000       1.09773000      16.10050000      -0.01952200       0.05185000       0.06536400      -0.05318800
Cu       4.43642000       1.09773000      16.10050000      -0.01909400       0.16276400       0.01381500       0.02841400
Cu       8.23906000       3.29318000      16.10050000       0.01153000      -0.08503200      -0.10586100      -0.18663000
Cu       0.63377000       3.29318000      16.10050000      -0.04122300       0.16986100       0.00140500      -0.19492800
Cu       3.16887000       3.29318000      16.10050000      -0.01902800      -0.10446000       0.05038200       0.22131900
Cu       5.70396000       3.29318000      16.10050000      -0.01211000      -0.18465900       0.01338200      -0.00879400
Cu       9.50660000       5.48864000      16.10050000      -0.03799000       0.06272300      -0.03803800      -0.12568000
Cu       1.90132000       5.48864000      16.10050000       0.01590200      -0.01413500       0.05555600       0.34867900
Cu       4.43642000       5.48864000      16.10050000      -0.01575500      -0.01418000       0.13462400       0.12932300
Cu       6.97151000       5.48864000      16.10050000      -0.01258800      -0.06718400       0.17259900      -0.06662400
Cu       0.63377000       7.68410000      16.10050000      -0.01376300      -0.14859500      -0.04960500       0.08626000
Cu       3.16887000       7.68410000      16.10050000       0.00885100       0.15908800      -0.00058600       0.09203000
Cu       5.70396000       7.68410000      16.10050000      -0.02504300       0.00411700      -0.04790200       0.10570900
Cu       8.23906000       7.68410000      16.10050000      -0.04000800       0.07512400       0.16396900      -0.18307200
Cu       5.85379000       1.93470000      18.23000000       0.00043300      -0.54831900      -0.50120200       0.00111900
Cu       8.31899000       1.81407000      18.19350000       0.00818400      -0.43073000       0.34607500      -0.10167300
Cu       0.65934000       1.85486000      18.16570000      -0.00529600       0.50438800      -0.41552400      -0.21926100
Cu       3.28236000       1.78541000      18.15560000      -0.00408300      -0.24404500       0.57088500       0.07089900
Cu       6.94330000       4.06056000      18.08830000       0.00040900       0.33003000       0.31000900       0.57782600
Cu       9.53274000       3.93182000      18.09470000       0.00429600      -0.68089700       0.78543200       0.47411200
Cu       1.75566000       4.11011000      18.27300000       0.00260100       0.98719500      -0.08923400      -0.36783200
Cu       4.34478000       4.15356000      18.18330000       0.00633200       0.06811700      -0.66086400       0.32226200
Cu       8.28711000       6.29270000      18.10650000      -0.00513300      -0.62558800      -0.63904400       0.42041000
Cu       0.47559000       6.21499000      18.24880000      -0.00001300       0.98214700       0.23980000      -0.12755900
Cu       3.13877000       6.30465000      18.26340000       0.01178200      -0.07861900      -0.24540400      -0.01765300
Cu       5.69107000       6.20933000      18.26270000       0.00391400       0.18100100       0.29062100      -0.50039000
Cu       9.44883000       8.47812000      18.25490000       0.00468700       0.73242400      -0.22665300      -0.75547400
Cu       1.88922000       8.36740000      18.09810000      -0.00122900      -0.14389700       0.30770800       0.43261600
Cu       4.54714000       8.45916000      18.21860000      -0.00324500      -0.38313500      -0.17315300      -0.36494800
Cu       7.02274000       8.35406000      18.16980000       0.00538600      -0.34446400       0.46572400       0.02218800
Cu       5.76967000       0.31472000      20.19670000      -0.08644900       0.01472200       0.51640900       0.11945200
Cu       8.26793000       0.45900000      20.19950000      -0.03869500      -0.33120700       0.09061400       0.31253200
Cu       0.65380000       0.42134000      20.19560000      -0.03519600       0.03020700      -0.00727100       0.03469400
Cu       3.08573000       0.38176000      20.12360000      -0.06272600       0.72836300      -0.09181000       0.24949100
Cu       7.15295000       2.78887000      20.22990000      -0.04641500      -0.22200400      -0.56936000      -0.08337200
Cu       9.71471000       2.64441000      20.19190000      -0.04061600      -0.70249200       0.09782200       0.13355500
Cu       2.00452000       2.58072000      20.16790000      -0.09071000       0.26454000       0.14083700       0.13595500
Cu       4.63194000       2.62565000      20.31620000      -0.07310300      -0.46596600      -0.12774600      -0.47742400
Cu       8.30631000       4.87373000      20.21310000      -0.08622700       0.22556700      -0.11907600      -0.19938800
Cu       0.62901000       4.84824000      20.34140000      -0.10142200       0.07933300       0.07703600      -0.02803500
Cu       3.12649000       4.76970000      20.37750000      -0.08230800       0.28243800       0.21404500      -0.40995000
Cu       5.69904000       4.86688000      20.28350000      -0.07445100       0.17154200      -0.46908700      -0.06307100
Cu       9.50073000       7.12382000      20.27590000      -0.10011100       0.15796800      -0.61596000       0.15008900
Cu       1.87703000       7.02159000      20.38800000      -0.10203200       0.10455900      -0.28649700      -0.52065500
Cu       4.51672000       6.99769000      20.30000000      -0.08680300      -0.54716900      -0.02520100      -0.17173400
Cu       7.06912000       6.92518000      20.29220000      -0.08115300      -0.29946400       0.46381800      -0.19368000
O        0.23435000       2.70370000      26.62910000      -1.37047800       0.09522100      -0.87547900       0.24675400
O        4.67729000       3.41807000      26.54350000      -1.36670200       0.46426900       0.20559900      -0.40578500
O        8.62924000       7.85827000      23.57010000      -1.29425200       1.64467600       0.49438700       0.30416800
O        9.40165000       4.98934000      27.87530000      -1.34000700      -0.24380900      -0.56110500       0.51082700
O       10.04450000       3.92392000      24.00640000      -1.31296100       0.85966900       0.54105800       0.59056000
O        2.81352000       5.37414000      26.96680000      -1.36257700       1.35332300      -0.10664600       0.30060900
O        9.63874000       7.57098000      26.95650000      -1.32185300      -1.00652700       1.81352900       1.04086800
O        1.28134000       0.51486000      27.89640000      -1.39500300      -1.46847900      -0.78164700       0.11401100
O        5.55367000       0.95106000       0.11160000      -1.28408100      -0.14435200      -1.28631000       0.69333500
O        2.84044000       2.40814000      24.47540000      -1.28854400      -0.48195200      -1.81888500      -1.36504800
O        3.91072000       1.37499000      27.86140000      -1.36032000      -0.67625400       0.50643200       0.03952700
O        3.32314000       0.29301000       1.68765000      -1.37439500      -0.48804800      -2.28421700      -1.97529400
O        3.91002000       3.68823000       6.77438000      -1.33567800      -0.75616400       1.69504600      -1.83734600
O       10.00385000       2.48703000       3.29336000      -1.26378100      -0.70814700       0.67062400       1.62439000
O        0.26824000       3.07597000       0.50287000      -1.28124500       0.57429000       0.13201500      -0.47053400
O        4.22436000       2.37111000       2.84709000      -1.37203400      -0.28018600       0.55089700       0.36364300
O        7.06616000       3.56221000       6.25557000      -1.34712800       0.23654900       0.22945400      -0.80691500
O        7.97661000       5.16747000       0.99377000      -1.34574000      -1.14516500      -1.47842500      -1.36701200
O        3.58969000       0.70065000       6.68572000      -1.33603500       1.22377100      -0.49465400       0.93891400
O        8.74387000       8.60107000       3.14763000      -1.34232300       2.06517500      -0.04021800       0.56172700
O        0.81976000       5.62440000       2.37130000      -1.32128900       0.37572300       0.01016200      -3.02200700
O        1.27900000       3.69752000       6.89814000      -1.33183000       0.16643800      -0.01425700       0.35717600
O        3.51203000       5.20382000      23.52350000      -1.30187800       0.43460700       0.22583400       0.31113800
O        1.35927000       7.60966000       0.36656000      -1.32837100      -0.49933400      -0.65221800       0.05472000
O        7.16564000       7.43381000      29.07420000      -1.28185000      -1.31388000       0.76438200      -0.56821300
O        9.39723000       4.68907000       5.14870000      -1.36007000       1.45255800      -0.71998700       0.64141400
O        7.71767000       0.63718000      26.78750000      -1.28637200       1.79950100       1.57046800      -0.48312100
O        8.04216000       7.89278000       6.54497000      -1.36361500      -0.94291300      -0.26903800      -1.25206800
O        6.48573000       8.19973000       4.50977000      -1.35931900      -0.76358200      -0.43423000       0.31229000
O        2.54915000       3.51788000      28.89430000      -1.32056600       0.29924400      -1.41944900      -0.21232900
O        5.42673000       5.81122000       6.51625000      -1.38839400      -1.44425400       0.96158000      -0.30481600
O        0.08718000       7.34730000       5.30094000      -1.32127100       1.36491600      -0.61647100      -0.48755300
O        4.18924000       6.66920000       3.64114000      -1.36907500       0.10088300      -0.01685700      -0.79762800
O        3.30856000       4.62025000       1.84405000      -1.38826800      -0.28463100      -0.65619800       2.01052100
O        5.31081000       2.97807000      23.93310000      -1.30688800      -0.87297400      -0.45109000      -0.01888900
O        1.15127000       6.60792000      25.21250000      -1.31106800      -0.96244000       0.05731200      -0.03537400
O        9.22844000       0.79201000       0.47199000      -1.36332500      -0.40463900      -0.40711700      -0.84672200
O        4.98769000       7.76187000      23.30720000      -1.36177900      -0.25753900       0.67414200      -0.00876200
O        6.18869000       3.28733000       1.29799000      -1.37730500      -1.15758500       0.34181900       1.28075700
O        2.63849000       6.70349000       6.25819000      -1.34229800       0.57312700       1.30794400      -3.29774000
O        6.62986000       6.12475000      24.82780000      -1.31601700      -0.43818300      -0.19758200       0.58671700
O       10.01670000       1.33840000      22.85840000      -1.33368800      -0.70432900       0.15800900      -0.35411300
O        1.25551000       1.10730000       5.81526000      -1.30931300      -1.02784900       1.20045700      -0.55584100
O        5.10419000       0.67505000      25.56500000      -1.33175900       0.88607900      -0.77802500      -0.80305300
O        4.37608000       5.30907000      29.70500000      -1.31291800       1.95301000       0.32651800       0.78677100
O        7.39216000       1.38986000      23.16130000      -1.30235300      -2.03684400       2.39160200       0.44853400
O        6.84575000       2.89812000      28.46990000      -1.32509300      -1.12330300       2.74766900      -0.11016200
O        5.44654000       1.84666000       5.25613000      -1.34477700      -0.20136400      -0.66750900      -0.39927000
O        2.26640000       8.68036000      23.14640000      -1.32657600       0.21096200      -0.35516900       0.30337800
O        5.12245000       7.13084000      27.15680000      -1.34037600       0.49991600       0.35259000       0.33495900
H        0.19229000       2.86382000      25.69340000       0.67360900      -0.03568600       0.16652800      -1.13570800
H        0.00612000       3.55845000      27.00120000       0.68931200      -0.36797800       0.71226900       0.61165800
H        4.04103000       4.15784000      26.57980000       0.68138300      -0.11188100       0.35503500      -0.04849800
H        4.98888000       3.36586000      25.60180000       0.69016400       0.04842400       0.04971900       0.42024100
H        0.17109000       3.48029000       1.36999000       0.68614600      -0.23924900       0.14451800       0.34844500
H        9.46827000       8.42043000      23.58650000       0.63915500      -1.45151700      -0.57839400       0.27951900
H        8.59277000       4.69016000      28.36510000       0.64907200       0.78688200       1.01023700      -0.84821300
H        9.45243000       5.95623000      27.64920000       0.67566800      -0.63551500      -0.62596400       0.36264100
H        0.51442000       4.70023000      24.02600000       0.64897800      -0.68852300      -0.51437500      -0.11148000
H        9.74397000       3.83187000      23.09980000       0.63102800      -0.20006200       0.44797300      -0.44317900
H        0.87929000       1.23130000      27.40460000       0.68751900      -0.35884700       0.85447800      -0.25361100
H        2.41592000       4.76674000      27.57910000       0.67401800      -0.43356000      -0.63985200       0.92542400
H        4.15156000       3.18363000       7.52612000       0.63026700       0.74458800      -0.46753400       1.57063400
H        0.24224000       8.12597000      27.35440000       0.67244800      -0.23928200      -0.70752200      -0.26792600
H        4.57591000       1.17662000      28.53740000       0.67249800       0.27202600       0.19629800       0.10539900
H        2.17344000       0.79611000      28.00100000       0.69856500       1.79185100      -0.00815500       0.05894300
H        6.38146000       0.43184000       0.24637000       0.62286500      -0.81204300       0.39124600      -0.39014300
H        2.72609000       1.53516000      23.94960000       0.65894400      -0.10562500       1.18261600       0.53546000
H        2.82597000       2.08592000      25.37720000       0.64668800       0.12056300       0.02109800       0.45869200
H        7.84327000       8.61104000       3.44001000       0.68204100      -1.40685700      -0.22312200       0.46314100
H        4.22792000       2.13133000      27.25870000       0.68599100       0.31987200      -0.68024600       0.46931000
H        3.12995000       4.34057000      23.69170000       0.63794900      -0.44048900      -0.19429300      -0.08618100
H        3.52541000       1.01157000       2.24764000       0.72732200       0.53580900       2.22569800       1.48126400
H        3.56491000       8.28940000       2.17827000       0.64699000       0.00748800      -0.46564600       0.43837200
H        2.11851000       5.64241000      26.38260000       0.69026000      -0.72398900       0.88818600      -1.21891700
H        4.35246000       4.61232000       6.76660000       0.66323900      -0.18189300      -1.17500500       0.33408200
H        9.33685000       1.81148000       3.50565000       0.61319300       0.16495800      -0.36334100      -0.65448100
H        9.73554000       3.18335000       3.96242000       0.62496300       0.60983400      -0.19886800      -0.94742400
H        8.86041000       8.24493000      26.96270000       0.64164200       1.03157000      -1.40097000      -0.49793100
H        9.89100000       3.59696000      30.01689000       0.63018100      -0.10267800       0.52745000       0.00946300
H        4.67539000       2.30321000       3.73057000       0.68338900      -0.43671400       0.37962200      -0.24771300
H        6.46224000       2.84246000       5.88180000       0.69469000       0.07108300       0.37762800       0.41059900
H        6.82408000       3.72799000       7.16875000       0.59939900       0.11250800      -0.43245600       0.60329800
H        8.25343000       5.75482000       1.64705000       0.64087400       0.93428200       1.47852400       1.77713600
H        7.29442000       4.58806000       1.42765000       0.68485600       0.41028400       0.26354700      -0.55685300
H        3.44214000       0.87127000       7.64359000       0.59222200       0.15317500      -0.18717800      -0.24592900
H        2.77479000       0.95947000       6.24197000       0.69220200      -1.08023000       0.15643500      -0.48772600
H        3.78109000       3.25831000       2.68038000       0.68667000       0.76125400      -0.93647000       0.25540900
H        9.22497000       8.27762000       3.95910000       0.64067500      -0.24301000       0.12234700      -1.05215000
H        0.84994000       6.39344000       1.72034000       0.65587400       0.18997300      -0.75687200       0.49645300
H        0.66047000       6.02634000       3.18533000       0.66011100      -0.51757300       0.96883900       2.33627700
H        4.85612000       0.51718000       0.68771000       0.64750400       0.66804500       0.50760000      -0.62719500
H        2.30871000       3.72338000       6.85441000       0.67409900      -0.89092900       0.04208000       0.25132400
H        1.00738000       3.73897000       7.87106000       0.54948700       0.53941100       0.08097500      -1.01598100
H        3.03818000       5.58841000      22.77520000       0.60637500      -0.14507100      -0.14788300      -0.21354900
H        2.00698000       8.29999000       0.57164000       0.66610900      -0.25438000       0.16978600       0.12469700
H        7.93804000       7.65920000      28.58530000       0.63707400       0.90487800       0.45652100      -0.63589900
H       10.07930000       4.32781000       5.80178000       0.64969200      -0.54545200       0.47639600      -0.65662900
H        7.48884000       6.89918000      29.76640000       0.64322600       0.41356600      -1.39167500       1.47211000
H        0.55091000       8.04631000       0.04340000       0.65814500       0.47847500       0.36241900       0.12861600
H        8.58608000       4.26157000       5.45301000       0.70338500      -0.74563100       0.01334100       0.40540600
H        8.39113000       1.25744000      26.36510000       0.61855300      -1.00643200      -0.87452400       0.77550300
H        6.93234000       0.79837000      26.24630000       0.67881800      -0.91906900      -0.28327600      -0.39362500
H        8.88945000       7.92694000       6.04674000       0.68522500       0.08235300       0.19214000       1.25087500
H        5.78507000       7.56127000       4.25100000       0.67101600       0.33822900       0.29711400       0.01706000
H        2.96741000       2.65252000      28.53430000       0.64903100      -0.32688800       1.13551000       0.64329400
H        8.07596000       8.12619000       7.47252000       0.61885500       0.54229600       0.24147800       0.49433500
H        2.01821000       3.24190000      29.66070000       0.65276700      -0.22094000       0.08831800      -0.16421900
H        5.51830000       6.31917000       7.34753000       0.66214900       0.59608200      -0.50911000      -0.14165300
H        6.14181000       5.20859000       6.31228000       0.68680600       0.96238000      -0.21057100       0.30335900
H        1.07563000       7.22783000       5.46309000       0.64607500      -1.05779400       0.47387700       0.22001000
H        3.93049000       5.88126000       3.08350000       0.65387400       0.22296500       0.56154300       0.98234100
H        9.88383000       6.44441000       5.43423000       0.66528100      -0.20971200      -0.20905100      -0.20387100
H        3.96866000       6.55303000       4.57680000       0.69582600      -0.35933700      -0.56191400      -0.16258700
H        5.07656000       4.65370000      29.97869000       0.63460300      -0.95714300       0.70567400      -0.37731700
H        2.41507000       4.91622000       2.03389000       0.69051500      -1.01301400       0.20647400       0.29345900
H        3.57185000       5.09758000       1.07472000       0.69154400       0.98937300       0.72677600      -1.67757000
H        5.16024000       3.69180000      23.28900000       0.62422500       0.02715700       0.03108200       0.20921600
H        0.30073000       6.88255000      25.64370000       0.66477400       0.55923000      -0.33222000      -0.10331400
H        9.32062000       0.50889000       1.37610000       0.65367800      -0.14941000      -0.19931300       0.79625200
H        1.36208000       7.41572000      24.72850000       0.62871600       0.60197400      -0.09978100      -0.37175500
H        4.37159000       2.57522000      24.09600000       0.67149800       1.24882500       0.59392100      -0.39584600
H        9.57977000       1.70689000       0.46050000       0.67592300       0.20349300      -0.28809800       0.10477200
H        5.12867000       7.92825000      22.34680000       0.59619800       0.24860700      -0.46938600       0.31301600
H        5.34172000       6.89619000      23.58670000       0.70002900       0.13027500       0.03094200      -0.22120200
H        6.79499000       7.94514000       5.43033000       0.68485900       0.20141000       0.21390400      -0.54947600
H        2.32948000       6.18124000       6.94809000       0.65117100      -0.60554700      -1.08624900       2.47204800
H        7.30641000       6.72808000      24.52930000       0.64627500       0.77732400       0.31849800      -0.38910500
H        3.07395000       7.52349000       6.52991000       0.67373400      -0.09301300       0.07165300       0.75109000
H        6.50005000       2.84791000       0.53474000       0.70848900       0.69376200      -0.71868500      -1.65492800
H        6.40972000       6.45504000      25.71750000       0.65796200      -0.32119900      -0.20271100      -0.19961300
H        9.03695000       1.54409000      22.64600000       0.66633900       1.43512100      -0.10817200       0.86203900
H        0.32670000       2.13939000      23.18620000       0.63722100      -0.43217900      -0.30373900      -0.10655400
H        8.55941000       7.76631000      22.61160000       0.59507500      -0.32538800      -0.40970700      -0.50756100
H        0.87826000       1.42651000       4.96190000       0.65126600       0.46879000      -0.35643200       0.41406500
H        5.28799000       0.23221000      24.68980000       0.65031500      -0.48275600       0.26403000       0.78063200
H        1.09220000       1.90554000       6.38401000       0.64469800       0.13147600      -0.33994100      -0.18247600
H        4.99200000       8.68958000      26.16850000       0.66837200      -0.27423200       0.13235400      -0.12642300
H        3.62984000       4.79064000      29.41420000       0.67482600      -0.52347800      -0.99359700      -0.65607700
H        5.46672000       2.66996000       1.59842000       0.65876900       0.64079600       0.87547700       0.26607900
H        7.07550000       0.51798000      23.37980000       0.62363900       0.07629300      -0.64198600       0.03365400
H        6.58196000       2.03276000      23.38450000       0.64098800       1.67397800      -1.31906600      -0.50982600
H        7.21511000       2.09730000      28.15100000       0.67728300       0.33004800      -1.21921800      -0.94130800
H        6.32017000       3.36546000      27.74300000       0.63388000       0.85148400      -1.30962200       1.05555400
H        4.73260000       1.53362000       5.90586000       0.68207700       0.60599500       0.07413800      -0.50796900
H        5.85708000       1.01669000       4.89241000       0.65969800      -0.24788400       0.19416600       0.48076600