246
Lattice="10.140377178 0.0 0.0 0.0 8.78182424 0.0 0.0 0.0 30.131127158" Properties=species:S:1:pos:R:3:initial_charges:R:1:forces:R:3 stress="0.003410366827891738 0.0012506673571353614 0.002703309949584305 0.0012506673571353614 0.0018721156962721796 0.0005919072764440129 0.002703309949584305 0.0005919072764440129 9.591327073744803e-05" free_energy=-1798.36711342 energy=-1812.5778996999675 pbc="T T T"
Cu       7.00278000       1.18330000       9.76696000      -0.06848200      -0.29749300      -0.32690200       0.46871600
Cu       9.54539000       1.22935000       9.82430000      -0.07029800      -0.77600900      -0.50383900      -0.21494600
Cu       1.72310000       1.06762000       9.93655000      -0.14128700       1.24120100       0.62480000      -0.47295100
Cu       4.41783000       1.12399000       9.75602000      -0.11116000      -0.26726000       0.22223300       0.11530300
Cu       8.20128000       3.32020000       9.94534000      -0.06433700       0.04548700       0.33835000      -0.21118700
Cu       0.55595000       3.38634000       9.88528000      -0.01348200       0.64599800      -0.19547700      -0.09154200
Cu       3.15903000       3.35296000       9.68262000      -0.09977200      -0.00909300      -0.10318300       0.93823600
Cu       5.73231000       3.50233000       9.87239000      -0.09126200      -0.57750500      -0.84575900      -0.24281400
Cu       9.60144000       5.51325000       9.92491000      -0.10348000      -1.50571100       0.39288000      -0.34758400
Cu       1.76996000       5.61187000       9.90614000      -0.06502900       1.20104200      -0.40420500      -0.22228800
Cu       4.41500000       5.58135000       9.96801000      -0.10756800      -0.35860900      -0.33052900      -0.81453300
Cu       6.90816000       5.52546000       9.59537000      -0.05519300       0.51903700       0.51924100       0.80275300
Cu       0.62597000       7.70243000       9.88492000      -0.08730500      -0.37160800       0.18263800      -0.12915500
Cu       3.13523000       7.79481000       9.96364000      -0.10693100      -0.04647800      -0.16174600      -0.26640200
Cu       5.62162000       7.73693000       9.81621000      -0.14144700       0.48197000       0.22979300       0.06608000
Cu       8.22324000       7.73468000       9.77857000      -0.08546700      -0.15972500      -0.04840500       0.36791100
Cu       5.55739000       1.85807000      11.75190000      -0.00617400       0.83050800      -0.40642400       0.62599500
Cu       8.31000000       1.77182000      11.90130000      -0.00441700      -1.14255000       0.50678100       0.24804700
Cu       0.55921000       1.93761000      11.87170000       0.00363900       0.61490800      -0.23440600       0.69870100
Cu       3.09745000       1.84144000      11.95340000      -0.00120600      -0.01662300      -0.12957800      -0.36337300
Cu       6.91986000       4.02674000      11.91150000      -0.00115000       0.25116900       0.03321200       0.33237200
Cu       9.54248000       4.06286000      11.89500000      -0.00850100      -0.63442100      -0.05739100       0.64540100
Cu       1.91477000       4.10219000      11.96000000       0.00167600      -0.15430100      -0.53774900      -0.30840800
Cu       4.37970000       3.94952000      11.96130000      -0.00493700       0.06991300       0.58220600      -0.20545500
Cu       8.18268000       6.21198000      11.94130000       0.00502200       0.15475600      -0.03046300      -0.32835000
Cu       0.56157000       6.20157000      11.95420000       0.00069000       0.24271000       0.60390900       0.36165100
Cu       3.12561000       6.17738000      11.86780000      -0.01157100       0.03607400       0.55698100       0.78783000
Cu       5.68759000       6.24686000      11.83740000       0.00410000       0.10289400      -0.34019900       0.60714100
Cu       9.48122000       8.50212000      11.85620000       0.00829100      -0.08145700      -0.70452100       0.28122000
Cu       1.78589000       8.47792000      11.94220000      -0.01127400       0.47685600      -0.36658200       0.39457900
Cu       4.41501000       8.38154000      12.01350000      -0.00585600      -0.13869200       0.29718300      -0.41656500
Cu       6.94545000       8.32585000      11.97960000      -0.01179600       0.04164700       0.80220200      -0.45674300
Cu       5.70396000       0.36591000      14.03060000       0.00641000       0.02212500       0.13521800      -0.15402700
Cu       8.23906000       0.36591000      14.03060000      -0.04842800       0.01000700      -0.00325700      -0.14346700
Cu       0.63377000       0.36591000      14.03060000      -0.01790600      -0.12123900       0.09478900      -0.12736000
Cu       3.16887000       0.36591000      14.03060000      -0.02172400      -0.08159600      -0.00345200      -0.03689300
Cu       6.97151000       2.56137000      14.03060000       0.00669800      -0.04758300      -0.08268200      -0.36905200
Cu       9.50660000       2.56137000      14.03060000      -0.04490400      -0.04111500       0.01628500      -0.16008500
Cu       1.90132000       2.56137000      14.03060000      -0.01367000      -0.10085100       0.00432500      -0.09906900
Cu       4.43642000       2.56137000      14.03060000      -0.01439800       0.04988500      -0.12032900      -0.08348700
Cu       8.23906000       4.75682000      14.03060000       0.00892800      -0.00830800      -0.07077000      -0.19276700
Cu       0.63377000       4.75682000      14.03060000      -0.01913000      -0.03390900      -0.03024400       0.02220400
Cu       3.16887000       4.75682000      14.03060000      -0.04492900       0.03958100       0.05196000      -0.01512900
Cu       5.70396000       4.75682000      14.03060000      -0.02227100      -0.03086900       0.03561700      -0.24477000
Cu       9.50660000       6.95228000      14.03060000      -0.00585300      -0.04040300       0.08304600      -0.18431300
Cu       1.90132000       6.95228000      14.03060000       0.01001000       0.02037800      -0.01773500      -0.22543400
Cu       4.43642000       6.95228000      14.03060000      -0.01540000      -0.01823000      -0.18124500      -0.10313100
Cu       6.97151000       6.95228000      14.03060000      -0.04024700      -0.09122600      -0.13199900       0.00644600
Cu       6.97151000       1.09773000      16.10050000      -0.01337600      -0.04470600      -0.11421200      -0.07454800
Cu       9.50660000       1.09773000      16.10050000      -0.01545900       0.14554900      -0.02232700       0.00053000
Cu       1.90132000       1.09773000      16.10050000      -0.04547800       0.03153800       0.01303300      -0.10131900
Cu       4.43642000       1.09773000      16.10050000       0.00823700       0.02800700       0.14591100       0.07941800
Cu       8.23906000       3.29318000      16.10050000       0.01466800       0.07315200       0.09195900       0.18537200
Cu       0.63377000       3.29318000      16.10050000      -0.02046800       0.04370300       0.07114500       0.20194600
Cu       3.16887000       3.29318000      16.10050000      -0.01596500      -0.13146300      -0.09039500       0.02277600
Cu       5.70396000       3.29318000      16.10050000      -0.04243400       0.10089500      -0.08481700      -0.20279200
Cu       9.50660000       5.48864000      16.10050000       0.00951600       0.00260500      -0.17042800       0.08295900
Cu       1.90132000       5.48864000      16.10050000      -0.01764300       0.02124100      -0.02344900       0.06742100
Cu       4.43642000       5.48864000      16.10050000      -0.03723300       0.15084700      -0.06208600      -0.22021900
Cu       6.97151000       5.48864000      16.10050000      -0.02050400      -0.08755500      -0.00342400      -0.12031600
Cu       0.63377000       7.68410000      16.10050000       0.01280600      -0.00057700       0.14467500       0.03383500
Cu       3.16887000       7.68410000      16.10050000      -0.00754000       0.03469000       0.04051000       0.00393900
Cu       5.70396000       7.68410000      16.10050000      -0.00558300       0.07514500       0.05326200       0.08961600
Cu       8.23906000       7.68410000      16.10050000      -0.03452200      -0.01862000       0.02680600      -0.01707500
Cu       5.81984000       1.83274000      18.20220000      -0.01410800      -0.37511500      -0.21706500      -0.12591100
Cu       8.26184000       1.73964000      18.11560000      -0.00033600       0.28042600       0.59707700       0.49960400
Cu       0.71505000       1.81271000      18.18020000      -0.00420500      -0.35966100      -0.01254000      -0.18030300
Cu       3.13440000       1.73132000      18.22380000       0.00115300       0.65699600       0.83796900      -0.14876100
Cu       6.92943000       4.04269000      18.17120000      -0.00400800       0.45326400      -0.20485400       0.17371900
Cu       9.61992000       3.92377000      18.32190000      -0.00684100      -0.39075700       0.30859100      -1.00898700
Cu       1.98701000       4.10003000      18.25390000      -0.00046200      -0.18696400      -0.41174100      -0.44684900
Cu       4.45738000       3.93641000      18.09650000      -0.00473800      -0.02136600       0.24945400       0.57946500
Cu       8.19382000       6.17621000      18.12780000      -0.00937500       0.42326800      -0.06999200       0.36156300
Cu       0.62716000       6.25607000      18.11980000      -0.00320500       0.26149900      -0.15079000       0.43703100
Cu       3.31269000       6.19616000      18.12760000       0.00060600      -0.80914200       0.39375600       0.50718300
Cu       5.69345000       6.26790000      18.19260000       0.00758100       0.29245500      -0.30645100       0.06792700
Cu       9.43141000       8.39693000      18.21330000       0.00619500       0.79830000      -0.03116600      -0.14931400
Cu       1.98009000       8.46041000      18.18530000      -0.01126300      -0.63923500      -0.93331000       0.12257800
Cu       4.47462000       8.46166000      18.15890000       0.01211800       0.09401200      -0.27473000       0.06962600
Cu       7.05844000       8.37863000      18.25180000      -0.00435900      -0.48423000       0.20061800      -0.25426400
Cu       5.70305000       0.26370000      20.18820000      -0.08155300       0.35381400       0.57512600       0.32199100
Cu       8.41105000       0.33973000      20.53940000      -0.08152000      -0.89262400      -0.17792100      -0.74056300
Cu       0.58034000       0.37985000      20.22730000      -0.12587700       1.09725900      -0.71643300      -0.01904200
Cu       3.19052000       0.23593000      20.28020000      -0.09936900      -0.00879600       0.16206800      -0.40417100
Cu       7.16305000       2.45484000      20.24500000      -0.06511900      -0.37662400       0.21245900      -0.18856600
Cu       9.66230000       2.45956000      20.26960000      -0.10188700      -0.64874500       0.51010400       0.10629300
Cu       1.94947000       2.53583000      20.24830000      -0.00647900       0.32436800       0.11455000      -0.15707400
Cu       4.52073000       2.51147000      20.17420000      -0.04499100      -0.00107100       0.07893500      -0.10949900
Cu       8.32629000       4.68882000      20.17210000      -0.10894900      -0.24340200       0.24284700       0.33476000
Cu       0.72408000       4.71429000      20.25710000      -0.11044400      -0.16673500       0.29547900       0.17286100
Cu       3.24743000       4.81469000      20.22980000      -0.11020400       0.16900100      -0.35504800      -0.04546500
Cu       5.73839000       4.70739000      20.27900000      -0.11624500       0.20456700       0.05236100      -0.38868300
Cu       9.56308000       6.93272000      20.20000000      -0.12287600      -0.10253700      -0.33414600       0.00483800
Cu       1.94232000       6.88870000      20.36170000      -0.07019300      -0.09513000       0.19895300      -0.58714400
Cu       4.51975000       6.95295000      20.35130000      -0.05974600      -0.29766000      -0.36517400      -0.23733800
Cu       6.97907000       6.96171000      20.24970000      -0.11644700       0.43710300      -0.40107200       0.06468000
O        1.12447000       3.75669000       7.29917000      -1.33334800      -1.88039500      -0.43098700      -0.17472400
O        8.15636000       4.16636000       6.60574000      -1.38205100      -0.63922300      -0.04327300      -0.38898400
O        1.26870000       7.89654000       3.82762000      -1.29094200      -2.45137700       0.98995500       1.74371300
O        1.47965000       2.86030000      25.36920000      -1.34604000      -0.75316700       0.28179300      -0.00551000
O        1.97595000       3.15331000       1.26829000      -1.36078800      -0.12390900      -0.22322700      -2.09347900
O        3.47790000       2.22872000      27.61100000      -1.29015900      -0.44886400       1.96057800       0.19703000
O        0.89618000       5.26197000      28.88900000      -1.27244000      -1.46925900       1.34425700      -0.42669200
O        4.27708000       4.16085000       6.38876000      -1.34182600       0.03421300       1.02746300      -0.27009800
O        0.29157000       6.50824000      23.42700000      -1.34161700       0.65520700      -1.36784300      -0.18030400
O        8.09815000       7.98940000      23.38240000      -1.28146000      -0.92077200       0.57823800      -0.21583500
O        6.37439000       3.51977000      28.36770000      -1.37465600       0.18511000      -0.37240800      -0.35250900
O        5.98174000       0.95211000       3.57056000      -1.31115700      -0.68037700       0.58500700      -1.23446600
O        4.10061000       1.93392000       4.93239000      -1.38381900       0.77512400      -0.90920400       0.48531600
O        4.52865000       4.23782000      23.30630000      -1.35503700      -0.40399500      -0.82001000       1.18145200
O        4.09741000       7.16448000       2.88921000      -1.26781700       1.88764300       1.31063100       1.57293100
O        0.08247000       4.79109000       4.48033000      -1.29336600      -0.06756300      -0.48237300       0.43209200
O        8.60842000       6.27127000       1.23300000      -1.33926700       0.36878700       0.42146300      -0.18436900
O        8.34981000       7.99351000       3.54484000      -1.24772200       0.32564800       3.03863800      -1.42899100
O        1.90795000       7.78727000      27.19770000      -1.34798800       0.45938400      -1.96340700       0.68612300
O        7.13027000       7.50071000      29.20340000      -1.33281500      -0.08973400       0.60530800       0.03710800
O        2.64922000       1.77535000      22.69670000      -1.31031000      -2.37313500      -0.19298400       0.65021100
O        5.65655000       1.67412000      23.24460000      -1.31811000       1.65201000       2.21171100       0.26011600
O        2.78717000       7.56426000       0.44629000      -1.31771000      -0.53514500       0.37280000       0.58537300
O        4.79298000       6.15092000      29.69520000      -1.37087500       0.22362800       0.31354600       1.05197500
O        2.53256000       5.03751000      26.47260000      -1.33322800      -0.29135300      -0.88206500       0.98172900
O        5.61831000       2.40893000       0.85269000      -1.32055300      -1.00008500       1.33606600       0.96233200
O        7.44998000       1.23922000      26.51890000      -1.27792100      -0.41092100       0.69240600      -0.37318100
O        9.07838000       4.61627000      24.94890000      -1.31706200       0.13354900       0.67578000      -1.02767100
O        4.80758000       8.54255000      27.23710000      -1.32383300       0.86980500      -0.71526100       1.22766700
O        4.48651000       6.54288000       5.49654000      -1.31451000       0.94430800       1.42525300       0.97460800
O        9.82602000       7.70922000       6.54340000      -1.32026800       0.50171700      -0.18223500       0.00485700
O        1.44303000       1.08591000      29.67060000      -1.36168000      -1.39316300       2.05433100      -0.28046800
O        1.23788000       5.97225000       1.94320000      -1.33740200      -0.59173800      -0.01752800      -0.04751400
O        7.33254000       1.60753000       6.69009000      -1.33921700      -0.48443900       0.23539900      -0.31526400
O        8.42103000       2.13181000      23.44120000      -1.35986700      -0.50249900      -0.83459900       0.19977300
O        7.08987000       6.74215000       6.52014000      -1.35565100      -0.53211400       1.97747500      -0.64724800
O        7.13278000       3.48606000       3.95113000      -1.28928600       0.26215200       0.22697300       1.97307000
O        9.78215000       1.44619000       5.49770000      -1.31863900       0.09023500      -0.95476900       1.16303300
O        8.97527000       6.55233000      27.52880000      -1.30514600      -1.56136800       1.02845800      -0.26748600
O        9.04890000       3.76719000      27.72460000      -1.26383600      -0.10564900      -0.37529300       0.65029800
O        1.63499000       1.70835000       3.74193000      -1.32502000      -0.48056700       0.27548900       0.75083700
O        5.07479000       5.33761000      27.10580000      -1.38094800       0.32274400       0.00692600       0.35514000
O        4.13406000       4.58148000       2.05954000      -1.30605700       0.67677400       0.64882400      -0.65287900
O        2.67131000       8.74788000       6.16711000      -1.31465900       0.62804000       0.44174200       1.84166200
O        9.00267000       0.90970000       0.64541000      -1.31187500       0.19155800       0.51170700       0.20649800
O        5.21259000       7.99127000      24.29300000      -1.35944700      -1.97053700       1.32804800      -0.12306600
O        0.06234000       1.25906000      27.28350000      -1.36757900       0.81427100       0.15927900       0.39490900
O        2.87931000       6.49419000      23.97400000      -1.36197300      -0.08275800      -0.56943800      -0.09826200
O        6.33108000       5.38740000      24.61860000      -1.38495600      -2.92863800       1.37087700       0.37203800
O        7.87352000       3.47201000       1.48152000      -1.39625600       1.27882300      -0.09438200      -3.16823400
H        1.56826000       3.04058000       7.74685000       0.61676400       0.43203500      -0.75656900       0.63372900
H        1.81003000       4.18735000       6.83221000       0.64576300       1.34502900       0.95381600      -0.97925300
H        7.72259000       3.28660000       6.82842000       0.69467500       0.96303100       0.68801500       0.49271300
H        9.00314000       4.34262000       7.05933000       0.66439000      -0.46318500      -0.74846500      -0.03137400
H        4.34446000       6.21943000       2.90087000       0.65456900      -0.38094400       0.15506900      -0.03034100
H        2.03874000       7.46051000       3.56825000       0.66528300       2.37137500      -1.27491200      -0.74064100
H        1.91749000       3.69599000      25.63410000       0.67079800       0.23012000      -0.22993500       0.31590300
H        1.83714000       2.62623000      24.51090000       0.65852700       0.21007600      -0.26517500      -0.39371700
H        1.85999000       2.66380000       2.07339000       0.67174400      -0.47544300      -0.96225400       0.95662100
H        1.86968000       2.48026000       0.49724000       0.67760800       0.24906400       1.04857300       1.51437600
H        4.39713000       5.15544000       6.22347000       0.64699300      -0.43830300      -0.93399400      -0.58728300
H        3.69108000       1.32673000      27.52480000       0.66135600       0.54877400      -1.98782400      -0.03851800
H        3.32192000       1.95180000       4.38939000       0.69076800      -1.43617300       0.32076200      -0.93554100
H        0.25943000       4.57029000      28.57280000       0.63011800       0.29949700       0.53507600       0.15332800
H        5.72671000       4.12961000      27.95650000       0.67650300       0.22456400       0.49432800      -0.35180900
H        4.31404000       4.15495000       7.34532000       0.61712100       0.09419700      -0.59776900       0.86534700
H        0.07677000       6.26182000      22.50220000       0.60876200       0.18007000       0.10007600      -0.20539400
H        8.23264000       0.17418000      23.39460000       0.61353000       0.10566200      -0.30526300       0.25348000
H        7.31965000       7.91493000      22.76950000       0.60057700       0.94980700      -0.25344700       0.24871700
H        6.25048000       7.20958000      29.48400000       0.65782200      -0.73583600      -0.18980100      -0.02523600
H        5.87231000       3.14417000      29.09060000       0.66651800      -0.04815200      -0.54721300       0.89706600
H        3.22994000       8.05090000       1.15691000       0.65849900       0.37174700      -0.01050600      -0.08066600
H        5.71652000       1.37867000       2.67534000       0.60564600       0.48350800      -0.90812100       1.72949100
H        5.23826000       1.20771000       4.23420000       0.67498600       0.86911700       0.12915900      -1.01494200
H        4.29718000       2.64956000      27.34130000       0.60735700       0.03099100       0.12422600      -0.03284900
H        4.23784000       2.80060000       5.33096000       0.71065600       0.06249700       0.85769900       0.65051100
H        4.59620000       4.43073000      22.36600000       0.63216500       0.03508400      -0.12325000      -1.03273400
H        4.60290000       3.25657000      23.41810000       0.68364000      -0.02183600       0.50220400      -0.46737800
H        0.29148000       6.08381000      28.77100000       0.62694800       1.42961100      -1.79746300      -0.02938300
H        4.76056000       7.57363000       3.56950000       0.59578800      -1.86093200      -1.02354000      -1.82065400
H        9.30255000       4.54611000       4.33029000       0.62583300       0.09035200       0.07406600       0.04373900
H        8.36454000       5.33312000       1.13796000       0.66471400      -0.10165800       0.04690100       0.66570000
H        8.43183000       6.65360000       2.12305000       0.67423800      -0.39145100      -0.33794100      -0.26551800
H        7.54289000       8.59086000       3.64892000       0.64126100       0.63344600      -1.10585500      -0.03256100
H        8.94249000       8.69420000       3.06699000       0.60778400      -1.10566300      -2.05712800       1.20537400
H        2.80308000       7.84422000      27.57700000       0.66844700      -0.43341100       0.72001200      -0.65733000
H        1.55268000       8.59342000      26.86640000       0.66682000       0.04171600       1.25973700      -0.04604600
H        0.33653000       5.36765000       3.76267000       0.64610100       0.14756200       0.32592300      -0.46995100
H        7.63847000       7.03553000      29.87500000       0.64929900       0.81357900      -0.24485100       0.32302100
H        3.37152000       1.46534000      22.16640000       0.61397100       1.33925800      -0.35736800      -0.51598300
H        1.87995000       1.31052000      22.23300000       0.58490100       0.85548400       0.61732100       0.67378300
H        9.87160000       7.24516000      23.59220000       0.68822500      -1.15365700       1.25834300       0.07509300
H        6.62115000       2.00383000      23.30370000       0.62356800      -1.57334900      -0.67549900      -0.32376300
H        5.69935000       0.72481000      23.23560000       0.64163100      -0.25833500      -1.04763700       0.34474300
H        2.22017000       6.96970000       1.01557000       0.66764500      -0.03120100      -0.11178600      -0.56061700
H        4.05062000       6.76641000      29.88740000       0.68179900      -0.16691800      -0.14600400       0.02548900
H        2.45299000       5.73848000      25.84550000       0.69077100      -0.03025600       1.37576000      -1.12081400
H        5.10887000       3.16091000       1.30227000       0.61849100       0.10449700      -1.14695800      -0.73075400
H        1.90138000       5.26159000      27.19300000       0.66221700       0.16013100      -0.03823700       0.26049500
H        4.80672000       5.99155000      28.75690000       0.67187200      -0.01450800      -0.29193900      -0.99205800
H        6.49985000       2.82006000       1.01026000       0.66552200       0.28459200      -0.36063600      -0.20825000
H        7.10128000       2.00745000      27.01560000       0.64628700       0.12967700      -0.31941700       0.14921100
H        7.12577000       1.43853000      25.61990000       0.62446000       0.34905200      -0.36654700       0.30892400
H        9.91321000       4.18035000      25.17370000       0.65109300       0.04462700      -0.23236600       0.20969400
H        4.95782000       8.47195000      26.28680000       0.68000000       0.20147900      -0.29768300      -0.42489300
H        3.95217000       7.32363000       5.81931000       0.65082000       0.25176500      -0.72775100      -0.19990800
H        9.36102000       5.27723000      24.25420000       0.64212000       0.02476300      -0.50998200       0.72295200
H        5.41926000       6.71103000       5.84260000       0.64855000      -0.88117300      -0.09884600      -0.39043700
H        8.87989000       7.46948000       6.52694000       0.65793200       0.18062900      -0.34114000       0.04591100
H        0.14748000       7.13066000       7.19153000       0.62330900      -0.59965000       0.57544200      -0.25903900
H        1.78937000       0.21802000      29.75280000       0.68534300       0.71232200      -1.71837500       0.00766000
H        1.24682000       5.09716000       1.54426000       0.66856600       0.47201700      -0.71474100      -0.34234600
H        0.94856000       1.18979000      28.82500000       0.68379500       0.63013800      -0.37806600       0.02978200
H        0.31839000       6.22975000       1.72905000       0.67722600       0.03314800       0.28693900      -0.06712500
H        8.39707000       0.39527000       0.11881000       0.63951600      -0.66700800      -0.39591900      -0.27097700
H        8.16785000       1.29294000       6.29225000       0.66189300      -0.11955300      -0.19184400       0.11207500
H        6.92077000       0.93720000       7.26203000       0.61773300       0.36403600       0.15857400      -0.01985900
H        8.82610000       2.96663000      23.70290000       0.65751500       0.21117200       0.29621800      -0.14066200
H        7.31117000       5.83752000       6.67146000       0.69667600       0.49966600      -1.81487500       0.39970500
H        6.95718000       2.54195000       4.11494000       0.63466600      -0.25709700      -0.24449200      -0.45892100
H        6.84190000       7.11295000       7.38460000       0.60195000       0.02649700      -0.17863100       0.39257800
H        8.67445000       1.86716000      22.52430000       0.61058100       0.21504600       0.73411500      -0.05489900
H        7.31307000       3.77690000       4.88975000       0.63996000       0.03145000       0.12100900      -1.21163300
H       10.05090000       2.14238000       6.12489000       0.64165500       0.00404100      -0.19696500       0.00641600
H        9.99675000       0.55607000       5.95894000       0.67391800      -0.13497100       1.23553100      -0.57058400
H        5.59125000       8.11171000      27.68490000       0.64152500      -1.19417500       0.87420200      -0.98257200
H        8.18058000       4.02928000      28.08360000       0.64958100       0.04127100       0.08724800      -0.15933600
H        1.02342000       2.12477000       4.42105000       0.64401200       0.77038300      -0.80525600      -1.19089700
H        9.15436000       2.88502000      28.10780000       0.61095300       0.10934900      -0.06022800      -0.30134400
H        8.88500000       6.08228000      26.68410000       0.65017500       0.08437300       0.02330900       0.20783100
H        1.43243000       0.71663000       3.83766000       0.65796700       0.26621400       0.81606700      -0.25463600
H        4.13826000       5.18066000      26.87230000       0.68933700      -0.30239000       0.03210900      -0.40688700
H        5.62441000       5.35640000      26.29630000       0.68681000      -0.22525300       0.12492500      -0.42928300
H        1.14063000       7.68098000       4.78353000       0.65203200       0.01366100       0.24519000      -0.84752700
H        3.33263000       4.06655000       2.02509000       0.67208700      -0.90835100      -0.84064500       0.11924100
H        3.12642000       0.71826000       5.71754000       0.66259400      -0.10554300      -0.36136100       0.50378300
H        4.00668000       5.05997000       1.21659000       0.64285100       0.65537300       0.05364600       0.09950000
H        2.80957000       0.17422000       7.15748000       0.58837000      -0.31681600      -0.47237000      -1.75503800
H        9.80342000       0.96701000       0.09586000       0.65684600       0.34445300      -0.04568800       0.39328500
H        8.11255000       7.05839000      27.67500000       0.64117800       1.51128900      -1.01249000      -0.06191700
H        4.42218000       7.53328000      23.90920000       0.66987000       0.39166600       0.13596200       0.48402300
H        5.93099000       7.40613000      24.21950000       0.67889300       1.40240700      -1.65642900       0.00590100
H        0.39211000       1.96210000      26.70260000       0.69123900       0.32797600       0.04450100      -0.30771000
H        9.32983000       1.05453000      26.95510000       0.68675100      -0.98117700      -0.20468300      -0.33069000
H        1.94589000       6.65630000      23.64850000       0.68424700       0.88986100      -0.47058500       0.14929300
H        3.18785000       5.60941000      23.65190000       0.65049400      -0.47435400       0.85413800       0.10091700