246
Lattice="10.140377178 0.0 0.0 0.0 8.78182424 0.0 0.0 0.0 30.131127158" Properties=species:S:1:pos:R:3:initial_charges:R:1:forces:R:3 NELECT0=1456.0 NELECT=1458.9728663634107 U_vs_SHE=-1.503324322367399 stress="0.013263587624558603 0.0016391139190938316 -0.0016631499707376084 0.0016391139190938316 0.003350510755374518 -0.0016002542832760825 -0.0016631499707376084 -0.0016002542832760825 0.0063412297171874955" free_energy=-1803.49870744 energy=-1812.1614603015726 pbc="T T T"
Cu       7.10354000       1.08997000       9.82159000      -0.05342900       0.49640800       0.16606800       0.17978300
Cu       9.68305000       1.18022000       9.68864000      -0.01336300       0.05881400      -0.22893900       0.69515900
Cu       2.20620000       0.99850000      10.05030000      -0.09193400      -0.57755600       0.60581100      -0.78319100
Cu       4.68505000       0.97794000       9.91122000      -0.08145800      -0.45461600       0.87123000      -0.29277400
Cu       8.42061000       3.28605000       9.95409000      -0.08507600      -0.11497700      -0.31971800      -0.50176600
Cu       0.76791000       3.38813000       9.90201000      -0.07467800       0.11759200      -0.81930500       0.08240700
Cu       3.25315000       3.17909000       9.85767000      -0.09146100       0.18535700       0.21417200       0.23551900
Cu       5.74629000       3.25886000       9.79942000      -0.02248200       0.43448300      -0.11562500       0.27780100
Cu       9.64310000       5.37042000       9.97362000      -0.09946400       0.20281600       0.82554900      -0.17433700
Cu       2.10347000       5.45399000       9.82892000      -0.05961100      -0.24396100       0.34438600       0.34741000
Cu       4.59104000       5.48719000       9.63582000       0.11789200       0.10757700       0.13028200       0.39242300
Cu       7.18550000       5.36406000       9.95697000      -0.12747200      -0.38241600       0.43385100      -0.40302400
Cu       0.70108000       7.79029000       9.90720000      -0.05168600       0.27812700      -0.73540900      -0.36764500
Cu       3.38481000       7.72416000       9.83823000      -0.07067000      -0.35171600      -0.79844900       0.04618000
Cu       5.93345000       7.73814000       9.86499000      -0.07883400      -0.16190000      -0.79179000       0.16664900
Cu       8.36542000       7.58581000      10.01100000      -0.06046200       0.31912400       0.15886800      -0.81768400
Cu       5.88397000       1.72500000      11.90100000       0.00352300      -0.22058700       0.29338500       0.28846200
Cu       8.39419000       1.75612000      11.83310000       0.02114800       0.21885000      -0.19818000       0.47584600
Cu       0.79312000       1.71571000      11.90800000       0.01057600      -0.41249900       0.51326100       0.02247900
Cu       3.34319000       1.79044000      12.04320000       0.00395300      -0.06802500       0.06501800      -0.39054100
Cu       7.12540000       3.89892000      11.87810000       0.00628300      -0.63351600       0.20037600       0.60378300
Cu       9.57034000       3.98265000      12.10270000      -0.00014400       0.44584300      -0.15522400      -0.79768200
Cu       2.01773000       3.97874000      11.90290000       0.00957800      -0.05598900      -0.08343200       0.28551200
Cu       4.50827000       4.06324000      11.80970000       0.01502000       0.43523000      -0.28517800       0.28410500
Cu       8.41162000       6.18253000      11.97470000       0.00336200      -0.18549000      -0.45207200       0.26423000
Cu       0.82227000       6.14454000      11.95000000       0.00460700      -0.28190800      -0.09066200      -0.15970700
Cu       3.32853000       6.17364000      11.94870000       0.01059600      -0.06607300       0.17461700      -0.39016400
Cu       5.92207000       6.16240000      11.89210000       0.00863900      -0.57701900       0.08798200      -0.01539600
Cu       9.64781000       8.28693000      11.95560000      -0.00253600      -0.03635000       0.66083100       0.10374300
Cu       1.90645000       8.32895000      11.88530000       0.01119300       1.00431800      -0.13619800       0.81723400
Cu       4.52564000       8.34924000      11.85610000       0.00314800       0.23904200      -0.09815800       0.81587200
Cu       7.23311000       8.35085000      11.92860000       0.01183000      -1.05947400       0.24221100       0.39571200
Cu       5.70396000       0.36591000      14.03060000       0.01392100       0.04230400      -0.08769400      -0.26848300
Cu       8.23906000       0.36591000      14.03060000      -0.01300400       0.13657300       0.08170800      -0.06544800
Cu       0.63377000       0.36591000      14.03060000      -0.03837100       0.05165700      -0.02606100      -0.03016500
Cu       3.16887000       0.36591000      14.03060000      -0.00534900       0.02290800      -0.22276400      -0.09013100
Cu       6.97151000       2.56137000      14.03060000      -0.01358200       0.09862700      -0.07296200      -0.17736200
Cu       9.50660000       2.56137000      14.03060000      -0.03524000       0.04747400      -0.32867800       0.08573800
Cu       1.90132000       2.56137000      14.03060000       0.01451200       0.00765600       0.00655600      -0.09937600
Cu       4.43642000       2.56137000      14.03060000      -0.01485600       0.28567800       0.20283800      -0.03074800
Cu       8.23906000       4.75682000      14.03060000      -0.03429800      -0.16746300      -0.01763600       0.10749500
Cu       0.63377000       4.75682000      14.03060000      -0.01117000       0.24436600       0.03978000       0.20717700
Cu       3.16887000       4.75682000      14.03060000      -0.01024000       0.08144500      -0.06962500      -0.15745700
Cu       5.70396000       4.75682000      14.03060000       0.01517000       0.03931200      -0.06489100      -0.30967300
Cu       9.50660000       6.95228000      14.03060000      -0.00517400       0.15444900      -0.03881500       0.20254900
Cu       1.90132000       6.95228000      14.03060000      -0.01187900       0.16012500       0.00686000      -0.04124600
Cu       4.43642000       6.95228000      14.03060000      -0.01521800       0.15215900       0.00251900      -0.13834900
Cu       6.97151000       6.95228000      14.03060000      -0.01222200       0.02449000      -0.02024900      -0.05272600
Cu       6.97151000       1.09773000      16.10050000       0.01969200       0.03261100       0.12978000       0.11614100
Cu       9.50660000       1.09773000      16.10050000      -0.01093500       0.04861200      -0.01876100       0.11795900
Cu       1.90132000       1.09773000      16.10050000      -0.00761800      -0.07804200      -0.01150600      -0.02532300
Cu       4.43642000       1.09773000      16.10050000      -0.03079800       0.08269600       0.18837100      -0.14387800
Cu       8.23906000       3.29318000      16.10050000      -0.03648000      -0.08729100       0.06064900       0.08903900
Cu       0.63377000       3.29318000      16.10050000       0.00085000      -0.05608500      -0.07681700      -0.06330900
Cu       3.16887000       3.29318000      16.10050000      -0.01561200       0.11438000       0.03957700       0.11068200
Cu       5.70396000       3.29318000      16.10050000       0.01297600       0.00597700       0.03104700       0.32598700
Cu       9.50660000       5.48864000      16.10050000       0.01949000      -0.11963800       0.15261300      -0.02287200
Cu       1.90132000       5.48864000      16.10050000      -0.03548600       0.21567000       0.13564800      -0.27382200
Cu       4.43642000       5.48864000      16.10050000      -0.01136500      -0.03410300      -0.01687300       0.13914400
Cu       6.97151000       5.48864000      16.10050000      -0.01294400       0.00625500      -0.02657300       0.09486500
Cu       0.63377000       7.68410000      16.10050000      -0.01484400      -0.00650700       0.12558900      -0.04883200
Cu       3.16887000       7.68410000      16.10050000       0.02015700      -0.01687500       0.07184300       0.17694400
Cu       5.70396000       7.68410000      16.10050000      -0.03157600      -0.01640800       0.10264800       0.01757200
Cu       8.23906000       7.68410000      16.10050000      -0.00995700      -0.03816200       0.00811800       0.02358000
Cu       5.75335000       1.81833000      18.26030000       0.01067200       0.22564700       0.97211100      -0.32970500
Cu       8.37311000       1.92523000      18.20760000       0.01009500      -0.65169300      -0.15667300       0.10058500
Cu       0.65839000       1.84907000      18.22420000       0.01643400       0.03244000       0.03716800      -0.06396500
Cu       3.13565000       1.78879000      18.15280000      -0.00703000       0.28967200       0.82476900      -0.05261800
Cu       7.00777000       4.08971000      18.25000000       0.00107600      -0.14708800      -0.32808200      -0.30530800
Cu       9.52797000       4.09568000      18.13780000       0.02202400      -0.13205500       0.13781700       0.30284400
Cu       1.87046000       4.09909000      18.09770000       0.00220100       0.65856500      -0.41150400       0.43020600
Cu       4.45395000       4.10326000      18.26860000       0.00843400      -0.08256100      -0.38854200      -0.40668700
Cu       8.12509000       6.31855000      18.24690000       0.00370900       0.33208400      -0.61925100      -0.74285100
Cu       0.72270000       6.23040000      18.09830000       0.00279500      -0.36611100       0.26844300       0.31766200
Cu       3.23325000       6.31257000      18.22330000       0.01385400      -0.08067200      -0.11460300      -0.09039500
Cu       5.71977000       6.30215000      18.15730000      -0.01030700      -0.26700000       0.02117700       0.17720100
Cu       9.46439000       8.37916000      18.19000000      -0.00235000       0.19379700       0.48861000      -0.34471100
Cu       1.86113000       8.46858000      18.21900000       0.01310000       0.28667000      -0.38640500      -0.05465900
Cu       4.46248000       8.61954000      18.17960000       0.00275700      -0.03593000      -1.37822400       0.20752000
Cu       6.97829000       8.50809000      18.18290000       0.01072100       0.02810000      -0.02854500       0.07900400
Cu       5.73862000       0.47402000      20.32800000      -0.07155800       0.13776400      -0.44484500      -0.00809100
Cu       8.28021000       0.52006000      20.24510000      -0.07250500      -0.01352200      -0.23030700      -0.02249900
Cu       0.58167000       0.24570000      20.22390000      -0.09522900       0.35180400       0.43997900      -0.01460000
Cu       3.23016000       0.41727000      20.26620000      -0.03257100      -0.23780800      -0.47379900      -0.21208300
Cu       7.01632000       2.63525000      20.41480000      -0.08525000       0.09346300       0.01071100      -0.56352500
Cu       9.70823000       2.71499000      20.27420000      -0.04415400      -0.51677800      -0.78321600      -0.09444200
Cu       2.11330000       2.62849000      20.17470000      -0.09837500      -0.72141200      -0.16418700       0.07218600
Cu       4.51780000       2.54436000      20.29270000      -0.10191700       0.13308900       0.42270100      -0.20193200
Cu       8.27591000       4.75961000      20.27870000      -0.06523400       0.03940600       0.11618400      -0.13505900
Cu       0.74699000       4.74456000      20.18780000      -0.05735400       0.00640100       0.28185300       0.00945200
Cu       3.29289000       4.73726000      20.36350000      -0.05637000      -0.19189200       0.31345500      -0.28019300
Cu       5.77006000       4.85262000      20.23140000      -0.06462800       0.13007700      -0.12545700       0.21989100
Cu       9.50652000       6.85653000      20.04400000      -0.07985000       0.41796200       0.24828100       0.97431700
Cu       1.93656000       6.84284000      20.27510000      -0.08794400       0.14554900       0.59085100      -0.21255400
Cu       4.49913000       6.97111000      20.26890000      -0.10856500      -0.12201900       0.32585300      -0.14572400
Cu       7.01714000       7.13068000      20.27690000      -0.07377100      -0.12962400      -0.35069100      -0.07290300
O        1.16799000       6.16539000      23.70150000      -1.30584700       1.10280900       0.78975200       0.30534900
O        0.05957000       7.41737000      27.23600000      -1.37293600      -0.90769700       3.66683700       0.13428700
O        1.36949000       6.83740000      29.37910000      -1.38160800      -0.15451500       0.93899200       1.61952800
O        4.50678000       2.95588000      23.67610000      -1.31817100      -0.96552600       1.18747200       2.46526700
O        7.07800000       7.22403000      23.71510000      -1.25658500       1.89617600      -0.16844200       1.12153000
O        7.24396000       7.50095000       0.55398000      -1.31381000       1.34716100       0.92542200      -1.40273000
O        3.65040000       1.43197000      26.11660000      -1.30602900      -0.32503000       0.15403100      -0.94350100
O        8.22618000       4.58067000      29.36380000      -1.29592500       0.38017500       0.69224300       1.70932200
O        7.15971000       3.90980000      26.42410000      -1.31878300      -0.23306000      -1.91189600      -0.85904600
O        9.91163000       8.55003000      24.54640000      -1.37870800      -1.34034800      -0.41583500       0.45978500
O        9.99510000       4.36462000      27.16930000      -1.33942700       0.10444600      -0.27104900       0.29202600
O        9.47950000       4.28044000       4.01208000      -1.35793500       0.05890700       0.32406300      -1.14084300
O        9.17054000       2.20692000       1.50811000      -1.33065700       0.06579400      -0.56668600      -0.11381400
O        0.15278000       8.76311000       6.53615000      -1.32655400      -0.19210400       0.09438400      -0.09305300
O        6.95577000       6.46612000      26.82620000      -1.33239800      -0.76172200       0.06283100      -0.28676000
O        1.75023000       5.95051000       3.45760000      -1.35331800       0.49123100      -0.18780700       0.71041200
O        5.39670000       2.08854000       3.08148000      -1.32949800       0.22675700       0.09025000       0.81355100
O        4.10876000       7.73518000      27.56570000      -1.25648800       1.42491100       0.82678300      -0.61062300
O        0.78156000       2.14863000      25.51420000      -1.31280400      -0.68350300       0.48514200       1.40460300
O        5.45180000       0.09456000       5.12201000      -1.32359600      -0.17431200       0.59168700      -1.05531300
O        1.56532000       2.72713000       0.49850000      -1.32763300      -3.01817600      -0.26920100       1.17488300
O        2.71278000       3.27265000       2.89020000      -1.35875500       0.59267400      -0.48997000       1.32531400
O        4.34708000       6.01901000      23.75020000      -1.31144000      -0.34510400      -0.12579700      -0.12013300
O        7.69321000       2.88089000      23.67020000      -1.33033000       0.44966700      -0.88040900       2.18667400
O        6.41665000       1.16495000      27.02340000      -1.31409400      -0.48528500       0.29194700      -0.60695900
O        9.37619000       3.60985000       6.73662000      -1.36056400      -0.40570800      -0.50058200      -1.64039500
O        2.21700000       5.89571000      26.27660000      -1.30551200       1.05579800      -0.30902100      -0.60799900
O        8.89312000       6.98351000       4.87098000      -1.33149300      -0.36913700      -0.27197900      -0.80515800
O        2.58956000       7.39604000       5.94082000      -1.27072300       0.30798000      -0.71351200       1.81972700
O        2.52896000       0.78386000      23.09560000      -1.28671100      -1.47242500      -1.03456800       1.52144500
O        3.61851000       2.14593000       6.82954000      -1.31992600       1.55188900       0.35766900      -1.54670500
O        7.90756000       0.26434000       2.99433000      -1.29842200      -0.89279500       0.11106800      -0.08286000
O        6.16433000       3.01245000       6.41823000      -1.33030000       0.46801800       0.72538400      -0.12846500
O        5.53037000       0.80626000       0.78375000      -1.34075300      -0.12192400       1.19959200      -0.12385800
O        2.36250000       4.36619000      28.69130000      -1.35745900       0.73966900      -0.92143200       0.01096100
O        4.08541000       4.05559000      26.73740000      -1.28007600       2.54294400      -1.27828400      -1.82305800
O        6.86485000       4.34346000       2.88690000      -1.34872900       1.50375100      -0.66588600       0.32606600
O        3.03053000       0.61561000      30.08968000      -1.33870400      -0.24044500      -2.26628300      -1.96813300
O        4.39624000       5.53881000       7.34104000      -1.33470800      -0.51395800       0.20482200       0.59297500
O        7.68527000       8.73731000       7.02020000      -1.36976300      -2.20412200      -0.04200000      -2.02627700
O        5.59821000       5.65054000      29.56430000      -1.29526900      -0.28556500       0.11919000       0.56523100
O       10.08660000       6.60029000       1.57613000      -1.31014000      -0.76282500       0.86232000      -1.79567400
O        4.21086000       6.96821000       1.34116000      -1.25740100      -2.01180400      -0.26943900      -1.13070600
O        8.36612000       0.41726000      28.88310000      -1.28626900      -0.98394400       0.99279200       0.59868600
O        5.92453000       3.03498000      29.35270000      -1.37182000       0.94938600       0.80810400       1.99820200
O        5.89039000       0.70249000      24.40460000      -1.35168900       0.18803900       2.56141000       0.13227200
O        5.27700000       6.37123000       3.74183000      -1.33072900      -0.74241300       0.61306100      -0.65336200
O        1.47047000       2.28689000       5.50470000      -1.33450700       0.33144700      -0.13074200      -0.54532900
O        0.39350000       3.70404000      23.26340000      -1.33137100       0.97984000      -1.12614400      -0.92114700
O        6.84622000       5.48839000       6.27107000      -1.25489100       2.24188200       1.39020900       0.52070900
H        1.90366000       6.46948000      23.13200000       0.61824100      -0.60344600      -0.12921800      -0.22584700
H        1.67789000       6.08813000      24.55110000       0.66950100      -0.41445800      -0.34943400       0.28662700
H       10.03210000       7.83892000      26.36260000       0.67007000       0.14480000      -0.11635800       0.22968000
H        0.09892000       6.51467000      27.09700000       0.69362300       0.20319300      -3.41578700      -0.70517800
H        7.74818000       6.66723000      27.30160000       0.62503100       0.89995200       0.38582600       0.55373500
H        1.75248000       5.95237000      29.31390000       0.67495200       0.20042700      -0.23578400      -1.27369700
H        4.86380000       2.71175000      22.85640000       0.62948600       0.84895400      -0.34395500      -2.13265000
H        4.38994000       3.92869000      23.67440000       0.63618800       0.11856500      -0.33185400      -0.34676900
H        7.85420000       7.15024000      24.36280000       0.62022600      -1.51856400       0.21376800      -1.28755700
H        7.49806000       7.52060000      22.88400000       0.61539700      -0.11051800      -0.22948700       0.08167600
H        8.36236000       5.02020000       0.13092000       0.61530000      -0.22321500      -0.89317300      -1.75259100
H        6.71346000       6.82156000       0.12640000       0.67976600      -0.59929200      -0.90762900      -0.00360500
H        8.86813000       1.44305000       2.07823000       0.67906800      -0.08950500       1.05591700      -0.23295600
H        2.70169000       1.59163000      25.92670000       0.65626300       0.08370900      -0.08083500       0.03030200
H        0.75554000       4.34916000      27.56400000       0.67221800      -0.29418800       0.05910100       0.08125500
H        7.42888000       4.02408000      29.46700000       0.66583100       0.30833000      -0.03705800      -0.01487000
H        7.09749000       2.99410000      26.81270000       0.65388600      -0.11358700       0.64109300       0.02537700
H        0.31454000       7.80321000      24.32620000       0.67461800       0.71830400      -0.85860000      -0.68528200
H        0.35129000       0.46788000      24.82640000       0.68659300       0.51736500       1.07320800       0.24873800
H        5.54946000       0.84859000       4.45329000       0.64884400       0.06296900      -0.81804200       1.00339400
H        9.37638000       4.17371000      27.90850000       0.66016000       0.41060400       0.35727300      -0.26149600
H        5.05001000       6.46957000      24.24800000       0.65779100      -0.14038100       0.02864600      -0.75076800
H        9.54833000       4.08988000       4.97254000       0.69721600       0.43408800       0.32217400      -0.28366200
H        0.12676000       4.70908000       3.58217000       0.65426700      -0.56033900      -0.66496000       1.29771000
H        7.68161000       7.92348000      29.87130000       0.61553200      -0.54238300      -0.27156200       1.40638200
H        9.02503000       3.04543000       1.97363000       0.66232300      -0.15354900      -0.57313400       0.22915100
H        1.03268000       8.34388000       6.52792000       0.66568900       0.06845100       0.17184700      -0.07008900
H        0.29536000       0.90898000       6.25732000       0.64312200       0.39461400      -0.35289100      -0.09506000
H        4.04184000       1.35036000      25.21230000       0.67767000      -0.12764500      -0.10201500       0.57367100
H        7.08527000       5.51339000      26.63700000       0.69258900      -0.11540500      -0.01527000       0.04614300
H        2.21277000       6.35098000       4.23783000       0.67985700      -0.67636100       0.08410200      -0.76213300
H        4.48503000       2.34877000       3.25479000       0.64689900      -0.57870400       0.07305100      -0.33592000
H        5.87847000       2.94130000       3.22024000       0.68808100       0.42216600      -0.22636900      -0.28102000
H        3.97075000       8.62046000      27.11450000       0.65452200       0.30567900      -0.85372100       0.45337700
H        5.10831000       7.61625000      27.53550000       0.59047300      -1.77086800       0.19846600      -0.09854500
H        0.20895000       2.74281000      26.07790000       0.63072200       0.71700500      -0.70319200       0.02240200
H        0.75863000       2.70163000      24.73100000       0.66386800       0.30213400       0.35813800      -1.24929000
H        1.15071000       6.56185000       2.99698000       0.66952500       0.13897200       0.15982500       0.09674500
H        6.30821000       8.71893000       5.54343000       0.65821000       0.23899000       0.31098800      -0.01595900
H        0.61778000       2.45021000       0.86261000       0.63172400       1.71158100       1.15012000      -0.63140100
H        1.88468000       1.84700000       0.30043000       0.68508000       1.25672900      -0.87981200      -0.34730300
H        7.34273000       3.63734000      25.48690000       0.67079300      -0.02959000       0.55015000       0.32652900
H        2.43763000       4.14641000       3.15496000       0.64225800      -0.02715500       0.81129500       0.39289500
H        2.42565000       3.22939000       1.98797000       0.69824100      -0.46174400      -0.50219000      -1.41789800
H        4.29338000       6.40137000      22.84300000       0.61568600       0.49794700      -0.13237900       0.73575400
H        8.62088000       2.85913000      23.41910000       0.64827900       0.56597000       0.10107800      -0.14656900
H        6.18315000       0.83424000      26.11460000       0.66527200       0.02020300       0.41721600       0.13279500
H        9.27420000       4.08446000       7.55260000       0.63152000       0.40520700       0.35915600       0.99240800
H        7.09297000       0.56893000      27.32510000       0.63054000       0.63883700      -0.21889100       0.46523600
H        7.25539000       3.25759000      22.94290000       0.65413900      -0.99820700       1.01580300      -1.81023300
H        0.13904000       3.28584000       6.61542000       0.67092500       0.29727500      -0.03800700       0.37813400
H        2.91979000       5.18266000      26.28900000       0.66134100      -0.88257500       0.39486700      -0.05803200
H        2.81822000       6.64359000      26.43280000       0.63695300      -0.24933800       0.25862100       0.28654300
H        9.43630000       7.59087000       5.39258000       0.67960700       0.29394500       0.35368800       0.48055100
H        3.27740000       8.07947000       6.06381000       0.64266500      -0.14871700      -0.29049200      -0.22562800
H        1.83546000       0.57488000      22.45360000       0.60319100       0.13195200       0.07202200      -0.17392400
H        9.47646000       6.37943000       4.38211000       0.64523600      -0.24796200       0.09235300       0.39206200
H        3.20262000       1.23207000      22.62840000       0.60665800       1.14921800       0.89987000      -0.97489000
H        3.57450000       2.08268000       7.78941000       0.60525300       0.32673200      -0.01560600       0.51705000
H        4.55786000       2.40520000       6.50672000       0.66129000      -1.50657800      -0.36818000       1.10468000
H        6.97075000       8.73454000       3.05927000       0.62767200       1.34952000       0.18381800      -0.04156000
H        6.68376000       2.22469000       6.56042000       0.64301400       0.45998800      -0.46390400       0.18361200
H        8.44444000       8.37820000       3.43515000       0.66965800      -0.18153600      -0.44230000       0.38082900
H        6.81197000       3.78084000       6.37089000       0.66606600      -1.07263400      -0.83976300      -0.26479500
H        5.63175000       2.81120000      28.50140000       0.68086900      -0.75505700      -0.86891400      -1.77441000
H        6.09542000       0.07148000       0.59327000       0.67964700       0.85032900      -1.47928500      -0.39839500
H        5.85488000       1.08945000       1.64803000       0.66391400      -0.57039900       0.59922600       0.42607600
H        2.23500000       3.71101000      29.42780000       0.67335500      -0.11444200       0.35471400      -0.62262700
H        5.05860000       4.17762000      26.47490000       0.63486600      -1.38615900       0.29732400       0.71310300
H        6.35529000       5.01378000       3.34100000       0.68230400      -0.77046600       1.01792700       0.19223400
H        3.97440000       3.18300000      26.22800000       0.64606900      -0.46707500       0.52047600       1.00399300
H        3.14443000       4.06594000      28.12820000       0.67105500      -1.09586400       0.64772500       0.95979300
H        7.73426000       4.39180000       3.37051000       0.65682600      -0.60168000      -0.24549100      -0.50920000
H        2.90907000       8.68261000      29.34790000       0.61641000       0.43296500       1.75265100       2.11734500
H        3.87856000       0.36738000       0.40453000       0.70832400      -0.47027900       0.42341500      -0.32447000
H        2.73627000       6.79445000       6.74994000       0.63161700      -0.02814400       0.99671500      -1.67475100
H        6.98859000       8.73115000       7.68351000       0.59899500       0.30914900      -0.02322900       0.74103200
H        5.72007000       4.72280000      29.85090000       0.68314300      -0.37409800       0.15461300      -0.17929300
H        8.54838000       0.04011000       7.37127000       0.70400700       1.47823600       0.05431200       0.98250700
H        4.49841000       4.60045000       7.23981000       0.62923800      -0.66405200      -1.34028300       0.02103900
H        5.74956000       5.61455000      28.62230000       0.62417300       0.11511200       0.16226700      -0.58463300
H        0.52201000       6.68272000       0.72462000       0.65454300      -0.90496000       0.00556300       1.00512200
H        9.20951000       7.01341000       1.28511000       0.62133500       1.35840100      -0.72768900       0.70271800
H        1.02752000       7.25175000      28.55960000       0.70384600       0.35842300      -0.89340500      -0.04339900
H        4.40088000       6.59225000       0.43146000       0.66090100       0.00189500       0.21470600       1.17453400
H        9.23344000       0.05538000      28.85970000       0.65806100       1.36167500      -0.47614700      -0.29686600
H        3.21052000       7.02019000       1.36971000       0.60178500       1.67706800      -0.04784100      -0.07372000
H        8.40421000       1.17031000      29.51310000       0.65827100      -0.00445500      -0.45870600      -0.39031000
H        5.83314000       2.25750000      29.94010000       0.70015000      -0.27027700      -0.43748200      -0.05769100
H        5.25928000       5.74831000       6.97930000       0.71082700       0.94580300       1.00324900      -0.57344100
H        6.46213000       1.46931000      24.08060000       0.65308700      -0.85798900      -1.09092000       0.50357000
H        6.37825000       8.71703000      24.13760000       0.68545700       0.60475700      -1.44046000      -0.44104500
H        5.28152000       7.22798000       4.20398000       0.65022900       0.15251000      -0.08664500       0.38490700
H        4.75997000       6.60371000       2.91865000       0.65417800       0.71176400      -0.60152400       0.43776500
H        1.61833000       2.26499000       4.53340000       0.63766700      -0.05898000       0.25035600       0.77573800