246
Lattice="10.140377178 0.0 0.0 0.0 8.78182424 0.0 0.0 0.0 30.131127158" Properties=species:S:1:pos:R:3:initial_charges:R:1:forces:R:3 NELECT0=1456.0 NELECT=1457.0 U_vs_SHE=1.0221613964751004 stress="0.017088733941410913 0.0016128309241647376 -0.0017030644215976318 0.0016128309241647376 0.007968091553867218 -0.0013430292091801818 -0.0017030644215976318 -0.0013430292091801818 0.012777511376853066" free_energy=-1808.41150608 energy=-1812.329985706475 pbc="T T T"
Cu       7.10354000       1.08997000       9.82159000      -0.02169300       0.49685100       0.16485200       0.16890300
Cu       9.68305000       1.18022000       9.68864000       0.02532100       0.07131000      -0.23482700       0.64392800
Cu       2.20620000       0.99850000      10.05030000      -0.06523400      -0.57605800       0.59806400      -0.74586800
Cu       4.68505000       0.97794000       9.91122000      -0.05332700      -0.45764100       0.86246300      -0.25670700
Cu       8.42061000       3.28605000       9.95409000      -0.05710700      -0.11581200      -0.32387500      -0.47032900
Cu       0.76791000       3.38813000       9.90201000      -0.04293200       0.11815400      -0.81434900       0.11005900
Cu       3.25315000       3.17909000       9.85767000      -0.05764200       0.18909900       0.22751700       0.24948100
Cu       5.74629000       3.25886000       9.79942000       0.00748300       0.43646800      -0.11351400       0.25164300
Cu       9.64310000       5.37042000       9.97362000      -0.06570500       0.21038300       0.82729600      -0.10568900
Cu       2.10347000       5.45399000       9.82892000      -0.02334700      -0.23147800       0.33517700       0.36502000
Cu       4.59104000       5.48719000       9.63582000       0.13854100       0.09467600       0.13317100       0.16913000
Cu       7.18550000       5.36406000       9.95697000      -0.09089900      -0.39390200       0.43470000      -0.33378700
Cu       0.70108000       7.79029000       9.90720000      -0.02037400       0.27565100      -0.72304200      -0.37039900
Cu       3.38481000       7.72416000       9.83823000      -0.03613800      -0.33570300      -0.78988100       0.06434000
Cu       5.93345000       7.73814000       9.86499000      -0.04473000      -0.17551400      -0.79364000       0.20585500
Cu       8.36542000       7.58581000      10.01100000      -0.03479000       0.31361800       0.16224100      -0.81026900
Cu       5.88397000       1.72500000      11.90100000       0.01333500      -0.22185400       0.30099500       0.27303400
Cu       8.39419000       1.75612000      11.83310000       0.03150600       0.22410200      -0.20393800       0.44853900
Cu       0.79312000       1.71571000      11.90800000       0.02056600      -0.41342500       0.51212700       0.00397200
Cu       3.34319000       1.79044000      12.04320000       0.01312300      -0.06354300       0.08156100      -0.38646100
Cu       7.12540000       3.89892000      11.87810000       0.01574300      -0.63720100       0.20918100       0.58250500
Cu       9.57034000       3.98265000      12.10270000       0.00915700       0.44550200      -0.15387300      -0.79345500
Cu       2.01773000       3.97874000      11.90290000       0.01974500      -0.05116700      -0.07568100       0.27334800
Cu       4.50827000       4.06324000      11.80970000       0.02308900       0.43390000      -0.27193300       0.26717800
Cu       8.41162000       6.18253000      11.97470000       0.01297000      -0.19446700      -0.44281900       0.24973000
Cu       0.82227000       6.14454000      11.95000000       0.01384500      -0.26822300      -0.08369900      -0.16726900
Cu       3.32853000       6.17364000      11.94870000       0.01846300      -0.06106700       0.17514200      -0.39614200
Cu       5.92207000       6.16240000      11.89210000       0.01714100      -0.58068500       0.08397600      -0.02010600
Cu       9.64781000       8.28693000      11.95560000       0.00617600      -0.03428400       0.67630200       0.09240600
Cu       1.90645000       8.32895000      11.88530000       0.02058500       1.00611700      -0.13685800       0.79716400
Cu       4.52564000       8.34924000      11.85610000       0.01269200       0.23708900      -0.10264000       0.80221500
Cu       7.23311000       8.35085000      11.92860000       0.02080600      -1.06099500       0.24966500       0.37533000
Cu       5.70396000       0.36591000      14.03060000       0.02319700       0.03930700      -0.09005500      -0.27800600
Cu       8.23906000       0.36591000      14.03060000      -0.00369100       0.13760200       0.07849300      -0.07220500
Cu       0.63377000       0.36591000      14.03060000      -0.02980300       0.04778700      -0.02811700      -0.03323900
Cu       3.16887000       0.36591000      14.03060000       0.00407400       0.02518900      -0.22423400      -0.09803400
Cu       6.97151000       2.56137000      14.03060000      -0.00413100       0.09591900      -0.07275800      -0.18855100
Cu       9.50660000       2.56137000      14.03060000      -0.02594900       0.04575700      -0.34224900       0.07124700
Cu       1.90132000       2.56137000      14.03060000       0.02299800       0.00999600       0.00731000      -0.11359900
Cu       4.43642000       2.56137000      14.03060000      -0.00514300       0.28540600       0.20598900      -0.02518900
Cu       8.23906000       4.75682000      14.03060000      -0.00321500      -0.17451500      -0.01997900       0.09423800
Cu       0.63377000       4.75682000      14.03060000      -0.02276900       0.24918200       0.03302400       0.19207900
Cu       3.16887000       4.75682000      14.03060000      -0.00120200       0.08540300      -0.07517900      -0.16404500
Cu       5.70396000       4.75682000      14.03060000       0.02311600       0.03764500      -0.07137500      -0.30642700
Cu       9.50660000       6.95228000      14.03060000       0.00442100       0.15248900      -0.03576700       0.18086900
Cu       1.90132000       6.95228000      14.03060000      -0.00289700       0.16312400       0.00564400      -0.04991300
Cu       4.43642000       6.95228000      14.03060000      -0.00524400       0.14974600      -0.00236100      -0.14381400
Cu       6.97151000       6.95228000      14.03060000      -0.00338600       0.02531800      -0.02179100      -0.06235200
Cu       6.97151000       1.09773000      16.10050000       0.02858200       0.03506900       0.13610900       0.12901400
Cu       9.50660000       1.09773000      16.10050000      -0.00212700       0.05135100      -0.01771700       0.12747300
Cu       1.90132000       1.09773000      16.10050000       0.00087500      -0.07912000      -0.00246900      -0.02394100
Cu       4.43642000       1.09773000      16.10050000      -0.02157300       0.08096700       0.19640200      -0.14150100
Cu       8.23906000       3.29318000      16.10050000      -0.02760100      -0.08583500       0.06717700       0.08726800
Cu       0.63377000       3.29318000      16.10050000       0.00904900      -0.05695700      -0.07537100      -0.06170600
Cu       3.16887000       3.29318000      16.10050000      -0.00705300       0.10750700       0.04066200       0.11588300
Cu       5.70396000       3.29318000      16.10050000       0.02196100       0.01328700       0.03250900       0.33236100
Cu       9.50660000       5.48864000      16.10050000       0.02943500      -0.12207400       0.15303100      -0.02612800
Cu       1.90132000       5.48864000      16.10050000      -0.02580500       0.22272000       0.13575800      -0.26295400
Cu       4.43642000       5.48864000      16.10050000      -0.00254400      -0.03547000      -0.01507400       0.15461700
Cu       6.97151000       5.48864000      16.10050000      -0.00345400       0.00660000      -0.02449500       0.09844800
Cu       0.63377000       7.68410000      16.10050000      -0.00557300      -0.00669000       0.13383800      -0.04437500
Cu       3.16887000       7.68410000      16.10050000       0.03038900      -0.01518600       0.07254100       0.18612800
Cu       5.70396000       7.68410000      16.10050000      -0.02216700      -0.01456500       0.10735700       0.03078200
Cu       8.23906000       7.68410000      16.10050000      -0.00097700      -0.04059000       0.01158800       0.02612600
Cu       5.75335000       1.81833000      18.26030000       0.02076700       0.22420600       0.96483500      -0.31060200
Cu       8.37311000       1.92523000      18.20760000       0.01961600      -0.64398600      -0.15924500       0.10639000
Cu       0.65839000       1.84907000      18.22420000       0.02508500       0.03118600       0.03015800      -0.05321600
Cu       3.13565000       1.78879000      18.15280000       0.00177000       0.28387300       0.81357900      -0.04954900
Cu       7.00777000       4.08971000      18.25000000       0.01141200      -0.14202700      -0.33410700      -0.29168200
Cu       9.52797000       4.09568000      18.13780000       0.03096200      -0.13106500       0.13473000       0.30129000
Cu       1.87046000       4.09909000      18.09770000       0.01146900       0.64851500      -0.42355100       0.42940900
Cu       4.45395000       4.10326000      18.26860000       0.01893300      -0.08321000      -0.39557000      -0.38772600
Cu       8.12509000       6.31855000      18.24690000       0.01285200       0.33910100      -0.62342300      -0.73192100
Cu       0.72270000       6.23040000      18.09830000       0.01251300      -0.37300800       0.26011300       0.31540100
Cu       3.23325000       6.31257000      18.22330000       0.02424400      -0.08161800      -0.11565200      -0.07161000
Cu       5.71977000       6.30215000      18.15730000      -0.00105000      -0.26774600       0.01640600       0.18321400
Cu       9.46439000       8.37916000      18.19000000       0.00751000       0.19365400       0.47848300      -0.33863600
Cu       1.86113000       8.46858000      18.21900000       0.02299900       0.27903600      -0.38646200      -0.04987600
Cu       4.46248000       8.61954000      18.17960000       0.01219400      -0.03790300      -1.37368200       0.21209100
Cu       6.97829000       8.50809000      18.18290000       0.02031700       0.03151400      -0.03764300       0.08477000
Cu       5.73862000       0.47402000      20.32800000      -0.03854200       0.13900600      -0.44248500      -0.03780800
Cu       8.28021000       0.52006000      20.24510000      -0.03905600      -0.00950600      -0.22831300      -0.04948000
Cu       0.58167000       0.24570000      20.22390000      -0.05982800       0.34450100       0.43559300      -0.04155200
Cu       3.23016000       0.41727000      20.26620000      -0.00612900      -0.25024500      -0.47204500      -0.17648600
Cu       7.01632000       2.63525000      20.41480000      -0.04522600       0.10784900       0.00166000      -0.58244800
Cu       9.70823000       2.71499000      20.27420000      -0.01221200      -0.51585500      -0.76748300      -0.07869100
Cu       2.11330000       2.62849000      20.17470000      -0.07030500      -0.71869800      -0.17076700       0.03646200
Cu       4.51780000       2.54436000      20.29270000      -0.06784200       0.13070900       0.42522900      -0.23866700
Cu       8.27591000       4.75961000      20.27870000      -0.03285100       0.04731100       0.11753100      -0.15216600
Cu       0.74699000       4.74456000      20.18780000      -0.03017000      -0.00148900       0.27749600       0.02899100
Cu       3.29289000       4.73726000      20.36350000      -0.01985200      -0.19183100       0.30839000      -0.30035800
Cu       5.77006000       4.85262000      20.23140000      -0.03524100       0.12997900      -0.12381300       0.19405500
Cu       9.50652000       6.85653000      20.04400000      -0.05427000       0.41967500       0.24532400       0.95736500
Cu       1.93656000       6.84284000      20.27510000      -0.05361800       0.13225300       0.58104300      -0.23752200
Cu       4.49913000       6.97111000      20.26890000      -0.07240100      -0.11725300       0.32573600      -0.19068000
Cu       7.01714000       7.13068000      20.27690000      -0.03826700      -0.12379500      -0.36248400      -0.10035400
O        1.16799000       6.16539000      23.70150000      -1.30137800       1.04684300       0.72119200      -0.15425000
O        0.05957000       7.41737000      27.23600000      -1.35989400      -0.92063600       3.72341600      -0.07967600
O        1.36949000       6.83740000      29.37910000      -1.37737900      -0.17736300       0.94971600       1.56438700
O        4.50678000       2.95588000      23.67610000      -1.29434800      -0.99422100       1.14433000       2.07995800
O        7.07800000       7.22403000      23.71510000      -1.24654500       1.90139700      -0.20064900       0.76978200
O        7.24396000       7.50095000       0.55398000      -1.31316200       1.35394600       0.93289500      -1.37092100
O        3.65040000       1.43197000      26.11660000      -1.29204600      -0.30219200       0.16357200      -1.14409600
O        8.22618000       4.58067000      29.36380000      -1.29594800       0.38948800       0.68771200       1.65356500
O        7.15971000       3.90980000      26.42410000      -1.30810200      -0.22486000      -1.92301300      -1.08261500
O        9.91163000       8.55003000      24.54640000      -1.37668400      -1.33881100      -0.42736400       0.07756200
O        9.99510000       4.36462000      27.16930000      -1.34370600       0.12106600      -0.31020100       0.12570600
O        9.47950000       4.28044000       4.01208000      -1.35036400       0.02946800       0.30005600      -0.80530300
O        9.17054000       2.20692000       1.50811000      -1.32437200       0.05423100      -0.58190600      -0.03115800
O        0.15278000       8.76311000       6.53615000      -1.32331600      -0.22310500       0.14294800       0.31120200
O        6.95577000       6.46612000      26.82620000      -1.33492400      -0.74480000       0.05491600      -0.47882800
O        1.75023000       5.95051000       3.45760000      -1.34751100       0.50602400      -0.20933900       0.94189900
O        5.39670000       2.08854000       3.08148000      -1.32575800       0.23293000       0.02689600       1.03860900
O        4.10876000       7.73518000      27.56570000      -1.24986300       1.39540200       0.82370100      -0.76223200
O        0.78156000       2.14863000      25.51420000      -1.31290300      -0.67072900       0.48472700       1.05981200
O        5.45180000       0.09456000       5.12201000      -1.31935000      -0.15104900       0.58616100      -0.67045400
O        1.56532000       2.72713000       0.49850000      -1.32619500      -2.99506300      -0.22598700       1.22814000
O        2.71278000       3.27265000       2.89020000      -1.35912200       0.58197800      -0.50507100       1.54555000
O        4.34708000       6.01901000      23.75020000      -1.29212400      -0.37416400      -0.14573900      -0.51085600
O        7.69321000       2.88089000      23.67020000      -1.30236700       0.44103000      -0.90975300       1.76656800
O        6.41665000       1.16495000      27.02340000      -1.30784500      -0.53709300       0.29527400      -0.89348300
O        9.37619000       3.60985000       6.73662000      -1.33285400      -0.51860200      -0.50222700      -1.10731500
O        2.21700000       5.89571000      26.27660000      -1.30412800       0.98609700      -0.29248200      -0.91885700
O        8.89312000       6.98351000       4.87098000      -1.32692700      -0.39941600      -0.26618800      -0.46869000
O        2.58956000       7.39604000       5.94082000      -1.24995000       0.26524400      -0.69392300       2.14035200
O        2.52896000       0.78386000      23.09560000      -1.25129500      -1.45549800      -1.07135700       1.12411600
O        3.61851000       2.14593000       6.82954000      -1.29809600       1.57770600       0.36897100      -1.05381600
O        7.90756000       0.26434000       2.99433000      -1.29261600      -0.90086000       0.08638800       0.10936500
O        6.16433000       3.01245000       6.41823000      -1.32000600       0.43090000       0.73376400       0.24071100
O        5.53037000       0.80626000       0.78375000      -1.33662300      -0.13057200       1.23008300      -0.05833800
O        2.36250000       4.36619000      28.69130000      -1.35486500       0.75800200      -0.91105500      -0.12688900
O        4.08541000       4.05559000      26.73740000      -1.27248200       2.53504600      -1.27274000      -2.02480100
O        6.86485000       4.34346000       2.88690000      -1.33770500       1.49850200      -0.67803200       0.47555800
O        3.03053000       0.61561000      30.08968000      -1.33495800      -0.23463700      -2.26205200      -1.97777100
O        4.39624000       5.53881000       7.34104000      -1.32250500      -0.55081000       0.17544900       1.06770900
O        7.68527000       8.73731000       7.02020000      -1.34024700      -2.20957500      -0.02982200      -1.59048100
O        5.59821000       5.65054000      29.56430000      -1.29174000      -0.29423400       0.14170900       0.54325300
O       10.08660000       6.60029000       1.57613000      -1.31275200      -0.74541600       0.84922400      -1.67853000
O        4.21086000       6.96821000       1.34116000      -1.25801600      -1.99573700      -0.27761000      -0.99849800
O        8.36612000       0.41726000      28.88310000      -1.28752900      -1.00225200       0.98722800       0.53050900
O        5.92453000       3.03498000      29.35270000      -1.36776500       0.95940500       0.81906300       1.95161900
O        5.89039000       0.70249000      24.40460000      -1.33346800       0.16804200       2.55481100      -0.29248500
O        5.27700000       6.37123000       3.74183000      -1.32876400      -0.71145000       0.64214200      -0.37201500
O        1.47047000       2.28689000       5.50470000      -1.33576600       0.42369000      -0.16682600      -0.16004100
O        0.39350000       3.70404000      23.26340000      -1.30911600       0.94067500      -1.15336400      -1.41187800
O        6.84622000       5.48839000       6.27107000      -1.23905000       2.14288100       1.32072600       0.93544100
H        1.90366000       6.46948000      23.13200000       0.60955500      -0.61031300      -0.13548800      -0.02148700
H        1.67789000       6.08813000      24.55110000       0.68058500      -0.30799400      -0.37209200       0.65704100
H       10.03210000       7.83892000      26.36260000       0.66034800       0.14845900      -0.19246700       0.44866700
H        0.09892000       6.51467000      27.09700000       0.69363900       0.18823500      -3.43714100      -0.65493600
H        7.74818000       6.66723000      27.30160000       0.63028600       0.90287200       0.39074700       0.61237600
H        1.75248000       5.95237000      29.31390000       0.67561400       0.19747400      -0.23561000      -1.25328800
H        4.86380000       2.71175000      22.85640000       0.61859700       0.87965000      -0.34245000      -1.95329200
H        4.38994000       3.92869000      23.67440000       0.63887600       0.11963900      -0.29075400      -0.20106800
H        7.85420000       7.15024000      24.36280000       0.63840300      -1.50796700       0.20732000      -1.14701300
H        7.49806000       7.52060000      22.88400000       0.60063400      -0.10206700      -0.22250300       0.33469400
H        8.36236000       5.02020000       0.13092000       0.61707200      -0.21380500      -0.88466600      -1.76616000
H        6.71346000       6.82156000       0.12640000       0.68059700      -0.60102900      -0.91168200      -0.00273200
H        8.86813000       1.44305000       2.07823000       0.67744600      -0.06051700       1.09606800      -0.30496800
H        2.70169000       1.59163000      25.92670000       0.65547500       0.08762600      -0.07721300       0.12782400
H        0.75554000       4.34916000      27.56400000       0.67401100      -0.26277000       0.05567800       0.14945500
H        7.42888000       4.02408000      29.46700000       0.66667500       0.30720700      -0.04366500      -0.00405200
H        7.09749000       2.99410000      26.81270000       0.65797800      -0.11372100       0.60713400       0.10431700
H        0.31454000       7.80321000      24.32620000       0.67197400       0.68306000      -0.81623500      -0.52456300
H        0.35129000       0.46788000      24.82640000       0.68871400       0.51479900       1.12376700       0.39406000
H        5.54946000       0.84859000       4.45329000       0.65593100       0.05820400      -0.70856700       0.78648200
H        9.37638000       4.17371000      27.90850000       0.66511300       0.37437100       0.35761000      -0.18947500
H        5.05001000       6.46957000      24.24800000       0.67029400      -0.12794600       0.04298200      -0.61996400
H        9.54833000       4.08988000       4.97254000       0.68822100       0.47522700       0.38591900      -0.64348200
H        0.12676000       4.70908000       3.58217000       0.66100300      -0.50718400      -0.64785500       1.21861700
H        7.68161000       7.92348000      29.87130000       0.61634000      -0.53822100      -0.27098900       1.41674900
H        9.02503000       3.04543000       1.97363000       0.66033800      -0.16236500      -0.58352500       0.16357300
H        1.03268000       8.34388000       6.52792000       0.66665400       0.10935600       0.13680700      -0.21666600
H        0.29536000       0.90898000       6.25732000       0.64829500       0.43578400      -0.28500500      -0.24300000
H        4.04184000       1.35036000      25.21230000       0.66751300      -0.16402900      -0.11626500       0.74849000
H        7.08527000       5.51339000      26.63700000       0.69182000      -0.11420700       0.01556400       0.12374200
H        2.21277000       6.35098000       4.23783000       0.67276600      -0.70499200       0.02780600      -0.96345300
H        4.48503000       2.34877000       3.25479000       0.64620500      -0.61081600       0.08948400      -0.41982800
H        5.87847000       2.94130000       3.22024000       0.68760200       0.43540200      -0.20317200      -0.35381800
H        3.97075000       8.62046000      27.11450000       0.65064400       0.31698700      -0.90332700       0.55558500
H        5.10831000       7.61625000      27.53550000       0.59192300      -1.76452500       0.19567900      -0.04360000
H        0.20895000       2.74281000      26.07790000       0.64575700       0.67773200      -0.63111900       0.17942000
H        0.75863000       2.70163000      24.73100000       0.65514200       0.32046300       0.24241300      -0.96142800
H        1.15071000       6.56185000       2.99698000       0.67365200       0.09109500       0.20467400      -0.03297000
H        6.30821000       8.71893000       5.54343000       0.64863800       0.15344300       0.30235700      -0.22784900
H        0.61778000       2.45021000       0.86261000       0.63214500       1.72683200       1.15161300      -0.66392000
H        1.88468000       1.84700000       0.30043000       0.68634300       1.26426500      -0.90001700      -0.35513500
H        7.34273000       3.63734000      25.48690000       0.65994500      -0.05093900       0.59572900       0.58592100
H        2.43763000       4.14641000       3.15496000       0.64055200      -0.01289000       0.81198900       0.32304000
H        2.42565000       3.22939000       1.98797000       0.70340900      -0.49682000      -0.54129400      -1.53172700
H        4.29338000       6.40137000      22.84300000       0.60272400       0.51349800      -0.12440000       0.98653300
H        8.62088000       2.85913000      23.41910000       0.64651500       0.57211700       0.10086300      -0.00323300
H        6.18315000       0.83424000      26.11460000       0.65906200       0.06484300       0.44121500       0.46594900
H        9.27420000       4.08446000       7.55260000       0.61598300       0.42838400       0.34239800       0.77234000
H        7.09297000       0.56893000      27.32510000       0.63700500       0.67707200      -0.24003500       0.55017000
H        7.25539000       3.25759000      22.94290000       0.64121900      -0.97450700       1.03135300      -1.60694200
H        0.13904000       3.28584000       6.61542000       0.67548400       0.39623800      -0.07121300       0.18136100
H        2.91979000       5.18266000      26.28900000       0.66206700      -0.84909900       0.34384300       0.03256000
H        2.81822000       6.64359000      26.43280000       0.63974000      -0.21494100       0.31022000       0.39282500
H        9.43630000       7.59087000       5.39258000       0.67146300       0.22870200       0.24249200       0.27473900
H        3.27740000       8.07947000       6.06381000       0.64331500      -0.10444800      -0.27502400      -0.35277500
H        1.83546000       0.57488000      22.45360000       0.59762400       0.10203000       0.07761600      -0.01224600
H        9.47646000       6.37943000       4.38211000       0.65399200      -0.23236300       0.06277300       0.28042300
H        3.20262000       1.23207000      22.62840000       0.60260900       1.18200900       0.93801800      -0.81781200
H        3.57450000       2.08268000       7.78941000       0.59339300       0.35373600      -0.02113100       0.26878900
H        4.55786000       2.40520000       6.50672000       0.66806300      -1.42519800      -0.36741200       0.97431000
H        6.97075000       8.73454000       3.05927000       0.62797800       1.35325000       0.17090200      -0.13991500
H        6.68376000       2.22469000       6.56042000       0.64330300       0.45266900      -0.47724800       0.01073900
H        8.44444000       8.37820000       3.43515000       0.66666000      -0.20509600      -0.40299100       0.23690600
H        6.81197000       3.78084000       6.37089000       0.66826300      -1.06329500      -0.80758500      -0.40663400
H        5.63175000       2.81120000      28.50140000       0.67796300      -0.76613100      -0.86755500      -1.71676500
H        6.09542000       0.07148000       0.59327000       0.68076900       0.86164400      -1.49117300      -0.40794200
H        5.85488000       1.08945000       1.64803000       0.66110600      -0.55399500       0.56175400       0.33057500
H        2.23500000       3.71101000      29.42780000       0.67654200      -0.12523700       0.32884800      -0.58830000
H        5.05860000       4.17762000      26.47490000       0.63315300      -1.37184700       0.30048800       0.79799900
H        6.35529000       5.01378000       3.34100000       0.67919500      -0.75887700       1.00735400       0.10712700
H        3.97440000       3.18300000      26.22800000       0.64172100      -0.46392400       0.55891700       1.11822200
H        3.14443000       4.06594000      28.12820000       0.66915800      -1.15390400       0.64719400       1.08441800
H        7.73426000       4.39180000       3.37051000       0.65226700      -0.63567500      -0.24391100      -0.60286400
H        2.90907000       8.68261000      29.34790000       0.61484300       0.41645600       1.75441700       2.14874500
H        3.87856000       0.36738000       0.40453000       0.70835400      -0.47391300       0.42420200      -0.33412100
H        2.73627000       6.79445000       6.74994000       0.62055100      -0.03702500       1.03076300      -1.85647800
H        6.98859000       8.73115000       7.68351000       0.59263600       0.30471900      -0.02378000       0.55312300
H        5.72007000       4.72280000      29.85090000       0.68420700      -0.37525000       0.14562500      -0.17866900
H        8.54838000       0.04011000       7.37127000       0.70221600       1.56297800       0.04113900       0.83525900
H        4.49841000       4.60045000       7.23981000       0.63439300      -0.65973500      -1.35956200      -0.13025700
H        5.74956000       5.61455000      28.62230000       0.62196800       0.10834000       0.15174400      -0.53576400
H        0.52201000       6.68272000       0.72462000       0.65732300      -0.88216700       0.00830700       0.97818400
H        9.20951000       7.01341000       1.28511000       0.62441200       1.34476700      -0.72264900       0.67646100
H        1.02752000       7.25175000      28.55960000       0.70253600       0.39676800      -0.90123700       0.06333800
H        4.40088000       6.59225000       0.43146000       0.66399900       0.02041100       0.19874800       1.16321300
H        9.23344000       0.05538000      28.85970000       0.65957300       1.36116800      -0.46839100      -0.26024400
H        3.21052000       7.02019000       1.36971000       0.60304400       1.67452800      -0.03526000      -0.10859400
H        8.40421000       1.17031000      29.51310000       0.66052000      -0.00604600      -0.45154900      -0.38400700
H        5.83314000       2.25750000      29.94010000       0.70113400      -0.27388000      -0.44931500      -0.05338900
H        5.25928000       5.74831000       6.97930000       0.71671500       1.07024800       1.02388600      -0.75656000
H        6.46213000       1.46931000      24.08060000       0.63987100      -0.86548600      -1.14625500       0.65232000
H        6.37825000       8.71703000      24.13760000       0.68322300       0.59632900      -1.36799300      -0.30310900
H        5.28152000       7.22798000       4.20398000       0.64233800       0.14698700      -0.14189800       0.24677000
H        4.75997000       6.60371000       2.91865000       0.66208600       0.65386700      -0.58784100       0.24955200
H        1.61833000       2.26499000       4.53340000       0.65229100      -0.05401300       0.29117000       0.60843300
H        2.39024000       2.21589000       5.93946000       0.66916000      -1.11119300       0.15110000      -0.48850700