246
Lattice="10.140377178 0.0 0.0 0.0 8.78182424 0.0 0.0 0.0 30.131127158" Properties=species:S:1:pos:R:3:initial_charges:R:1:forces:R:3 NELECT0=1456.0 NELECT=1456.0 U_vs_SHE=2.093957726735953 stress="0.01923850317114801 0.0015828529558331202 -0.001727799522263507 0.0015828529558331202 0.010905451854163022 -0.0011626371124239037 -0.001727799522263507 -0.0011626371124239037 0.015764073493588205" free_energy=-1810.16379783 energy=-1810.04792248 pbc="T T T"
Cu       7.10354000       1.08997000       9.82159000      -0.00649700       0.50084200       0.16254100       0.14687900
Cu       9.68305000       1.18022000       9.68864000       0.04282600       0.07512700      -0.23941700       0.59992500
Cu       2.20620000       0.99850000      10.05030000      -0.05153800      -0.57741600       0.59133800      -0.74412600
Cu       4.68505000       0.97794000       9.91122000      -0.03887900      -0.45874200       0.85598900      -0.25586700
Cu       8.42061000       3.28605000       9.95409000      -0.04335400      -0.11733700      -0.32611500      -0.46813100
Cu       0.76791000       3.38813000       9.90201000      -0.02773800       0.11643500      -0.81143200       0.10904800
Cu       3.25315000       3.17909000       9.85767000      -0.04067800       0.18937000       0.23633800       0.23917400
Cu       5.74629000       3.25886000       9.79942000       0.02237000       0.44063800      -0.11043900       0.22220600
Cu       9.64310000       5.37042000       9.97362000      -0.04918100       0.21237100       0.82647900      -0.09180500
Cu       2.10347000       5.45399000       9.82892000      -0.00621300      -0.22733100       0.33028100       0.35722300
Cu       4.59104000       5.48719000       9.63582000       0.15036600       0.08941000       0.13136400       0.06397800
Cu       7.18550000       5.36406000       9.95697000      -0.07403400      -0.39566900       0.43450400      -0.32542800
Cu       0.70108000       7.79029000       9.90720000      -0.00515400       0.27496500      -0.71268200      -0.38736500
Cu       3.38481000       7.72416000       9.83823000      -0.02037500      -0.33140200      -0.78282800       0.05688000
Cu       5.93345000       7.73814000       9.86499000      -0.02780400      -0.17797000      -0.79244500       0.20601000
Cu       8.36542000       7.58581000      10.01100000      -0.02114100       0.30892100       0.16704000      -0.82404700
Cu       5.88397000       1.72500000      11.90100000       0.01860200      -0.22137300       0.30480800       0.26527600
Cu       8.39419000       1.75612000      11.83310000       0.03607700       0.22573200      -0.20301800       0.44031700
Cu       0.79312000       1.71571000      11.90800000       0.02502100      -0.41290200       0.51282100       0.00107000
Cu       3.34319000       1.79044000      12.04320000       0.01712700      -0.06232900       0.08957200      -0.38897800
Cu       7.12540000       3.89892000      11.87810000       0.02017200      -0.63332400       0.21447600       0.57702700
Cu       9.57034000       3.98265000      12.10270000       0.01322000       0.44364100      -0.15029400      -0.79807800
Cu       2.01773000       3.97874000      11.90290000       0.02432100      -0.05333100      -0.07252200       0.26753800
Cu       4.50827000       4.06324000      11.80970000       0.02752400       0.43311300      -0.26809100       0.26361600
Cu       8.41162000       6.18253000      11.97470000       0.01768000      -0.19624600      -0.43756800       0.24378700
Cu       0.82227000       6.14454000      11.95000000       0.01841600      -0.26617900      -0.08073200      -0.17293200
Cu       3.32853000       6.17364000      11.94870000       0.02278000      -0.05906200       0.17826500      -0.39752400
Cu       5.92207000       6.16240000      11.89210000       0.02178600      -0.57882500       0.08397600      -0.01930800
Cu       9.64781000       8.28693000      11.95560000       0.01065100      -0.03311900       0.68302100       0.09164400
Cu       1.90645000       8.32895000      11.88530000       0.02520300       1.00555100      -0.13444000       0.79313400
Cu       4.52564000       8.34924000      11.85610000       0.01733400       0.23582500      -0.10085200       0.79416600
Cu       7.23311000       8.35085000      11.92860000       0.02532300      -1.06034200       0.25371800       0.36912600
Cu       5.70396000       0.36591000      14.03060000       0.02794900       0.03439800      -0.09277000      -0.28336400
Cu       8.23906000       0.36591000      14.03060000       0.00138000       0.13682400       0.07556800      -0.07590300
Cu       0.63377000       0.36591000      14.03060000      -0.02480300       0.04852800      -0.02966400      -0.03143000
Cu       3.16887000       0.36591000      14.03060000       0.00889300       0.02715700      -0.22507200      -0.10228300
Cu       6.97151000       2.56137000      14.03060000       0.00090900       0.09404800      -0.07213800      -0.19575500
Cu       9.50660000       2.56137000      14.03060000      -0.02130400       0.04533900      -0.34590200       0.06688200
Cu       1.90132000       2.56137000      14.03060000       0.02707400       0.01175600       0.00738100      -0.11829200
Cu       4.43642000       2.56137000      14.03060000      -0.00110500       0.28440400       0.20356200      -0.02572000
Cu       8.23906000       4.75682000      14.03060000       0.00123600      -0.17384400      -0.02030600       0.09241400
Cu       0.63377000       4.75682000      14.03060000      -0.01796000       0.24673200       0.02717300       0.18573000
Cu       3.16887000       4.75682000      14.03060000       0.00338200       0.08541500      -0.08144700      -0.16941500
Cu       5.70396000       4.75682000      14.03060000       0.02786000       0.03804600      -0.07674800      -0.30748200
Cu       9.50660000       6.95228000      14.03060000       0.00898000       0.14990100      -0.03865100       0.17493600
Cu       1.90132000       6.95228000      14.03060000       0.00151700       0.16134500       0.00447200      -0.05681100
Cu       4.43642000       6.95228000      14.03060000       0.00001400       0.15010900      -0.00043700      -0.14974300
Cu       6.97151000       6.95228000      14.03060000       0.00091300       0.02795400      -0.02358300      -0.06669100
Cu       6.97151000       1.09773000      16.10050000       0.03364900       0.03544300       0.14091200       0.13712900
Cu       9.50660000       1.09773000      16.10050000       0.00226300       0.05192500      -0.01515900       0.13153000
Cu       1.90132000       1.09773000      16.10050000       0.00491700      -0.07702600       0.00373200      -0.02245300
Cu       4.43642000       1.09773000      16.10050000      -0.01727300       0.07964100       0.20108500      -0.13661300
Cu       8.23906000       3.29318000      16.10050000      -0.02276900      -0.08514500       0.07193700       0.09095500
Cu       0.63377000       3.29318000      16.10050000       0.01341000      -0.05598900      -0.07230500      -0.05693300
Cu       3.16887000       3.29318000      16.10050000      -0.00254100       0.10525500       0.04036800       0.11754300
Cu       5.70396000       3.29318000      16.10050000       0.02604800       0.01545400       0.03327100       0.33659600
Cu       9.50660000       5.48864000      16.10050000       0.03349600      -0.12316200       0.15404100      -0.02216400
Cu       1.90132000       5.48864000      16.10050000      -0.02070800       0.22401500       0.13705500      -0.25867900
Cu       4.43642000       5.48864000      16.10050000       0.00215700      -0.03504000      -0.01483000       0.16018100
Cu       6.97151000       5.48864000      16.10050000       0.00122400       0.00819500      -0.02202900       0.10095500
Cu       0.63377000       7.68410000      16.10050000       0.00004100      -0.00488400       0.13671700      -0.03985900
Cu       3.16887000       7.68410000      16.10050000       0.03536200      -0.01443600       0.07364300       0.18911700
Cu       5.70396000       7.68410000      16.10050000      -0.01779400      -0.01238000       0.11063900       0.03730500
Cu       8.23906000       7.68410000      16.10050000       0.00358600      -0.04315200       0.01166800       0.03019700
Cu       5.75335000       1.81833000      18.26030000       0.02534200       0.22359300       0.95990200      -0.30038700
Cu       8.37311000       1.92523000      18.20760000       0.02384000      -0.64172900      -0.16199200       0.11005800
Cu       0.65839000       1.84907000      18.22420000       0.02913500       0.03180500       0.02568900      -0.05220000
Cu       3.13565000       1.78879000      18.15280000       0.00607400       0.28157700       0.80861100      -0.04480000
Cu       7.00777000       4.08971000      18.25000000       0.01658200      -0.14246200      -0.33780500      -0.28711200
Cu       9.52797000       4.09568000      18.13780000       0.03564500      -0.12983800       0.13062400       0.30635000
Cu       1.87046000       4.09909000      18.09770000       0.01641100       0.64632900      -0.42995700       0.43265700
Cu       4.45395000       4.10326000      18.26860000       0.02390700      -0.08340400      -0.39862300      -0.38592900
Cu       8.12509000       6.31855000      18.24690000       0.01699300       0.34008800      -0.62607500      -0.72624500
Cu       0.72270000       6.23040000      18.09830000       0.01693400      -0.37312900       0.25514000       0.31979900
Cu       3.23325000       6.31257000      18.22330000       0.02874700      -0.08262800      -0.11787100      -0.06612000
Cu       5.71977000       6.30215000      18.15730000       0.00384400      -0.26749200       0.01117300       0.18345000
Cu       9.46439000       8.37916000      18.19000000       0.01262200       0.19435700       0.47391500      -0.34103300
Cu       1.86113000       8.46858000      18.21900000       0.02756200       0.27530800      -0.38830200      -0.04995500
Cu       4.46248000       8.61954000      18.17960000       0.01709900      -0.03815100      -1.37205600       0.21951200
Cu       6.97829000       8.50809000      18.18290000       0.02504500       0.03199600      -0.04396800       0.08851000
Cu       5.73862000       0.47402000      20.32800000      -0.02300700       0.13971800      -0.44185300      -0.03542700
Cu       8.28021000       0.52006000      20.24510000      -0.02284800      -0.00618500      -0.22718000      -0.05100200
Cu       0.58167000       0.24570000      20.22390000      -0.04262800       0.33892900       0.43321000      -0.03889300
Cu       3.23016000       0.41727000      20.26620000       0.00873800      -0.25551400      -0.47216700      -0.14603500
Cu       7.01632000       2.63525000      20.41480000      -0.02727600       0.11184300      -0.00180900      -0.57468200
Cu       9.70823000       2.71499000      20.27420000       0.00258600      -0.51622400      -0.76301600      -0.05904300
Cu       2.11330000       2.62849000      20.17470000      -0.05507300      -0.71595600      -0.17226000       0.03217000
Cu       4.51780000       2.54436000      20.29270000      -0.05207900       0.13170400       0.43027800      -0.23477700
Cu       8.27591000       4.75961000      20.27870000      -0.01539600       0.04891200       0.11728100      -0.14440000
Cu       0.74699000       4.74456000      20.18780000      -0.01587000      -0.00206800       0.27609100       0.05015100
Cu       3.29289000       4.73726000      20.36350000      -0.00336200      -0.18786800       0.30946400      -0.29671900
Cu       5.77006000       4.85262000      20.23140000      -0.02127100       0.12386800      -0.12234200       0.19534400
Cu       9.50652000       6.85653000      20.04400000      -0.04173900       0.42147900       0.24732900       0.95934800
Cu       1.93656000       6.84284000      20.27510000      -0.03764800       0.12886900       0.57357900      -0.23376500
Cu       4.49913000       6.97111000      20.26890000      -0.05642900      -0.11375000       0.31937700      -0.19569200
Cu       7.01714000       7.13068000      20.27690000      -0.02134400      -0.12550000      -0.36942500      -0.09218400
O        1.16799000       6.16539000      23.70150000      -1.30318300       1.00381700       0.68571000      -0.35251800
O        0.05957000       7.41737000      27.23600000      -1.35523800      -0.91280700       3.74250900      -0.14713400
O        1.36949000       6.83740000      29.37910000      -1.37243900      -0.16453700       0.98240500       1.55124800
O        4.50678000       2.95588000      23.67610000      -1.28049500      -1.01891000       1.12229900       1.93300300
O        7.07800000       7.22403000      23.71510000      -1.24090800       1.88567200      -0.21945300       0.62934900
O        7.24396000       7.50095000       0.55398000      -1.31249000       1.34376500       0.94458900      -1.35533300
O        3.65040000       1.43197000      26.11660000      -1.28653900      -0.29537400       0.16163100      -1.21192500
O        8.22618000       4.58067000      29.36380000      -1.29543800       0.39195000       0.68625900       1.62993900
O        7.15971000       3.90980000      26.42410000      -1.30319900      -0.22468700      -1.92419900      -1.16509000
O        9.91163000       8.55003000      24.54640000      -1.37550400      -1.34146300      -0.43169400      -0.08316500
O        9.99510000       4.36462000      27.16930000      -1.34492500       0.13550300      -0.32343900       0.05910500
O        9.47950000       4.28044000       4.01208000      -1.34658300       0.01502300       0.29011700      -0.68028300
O        9.17054000       2.20692000       1.50811000      -1.32155700       0.06359900      -0.58715300      -0.00806200
O        0.15278000       8.76311000       6.53615000      -1.32236400      -0.24216900       0.15958800       0.48593200
O        6.95577000       6.46612000      26.82620000      -1.33509100      -0.74458100       0.05596400      -0.55477800
O        1.75023000       5.95051000       3.45760000      -1.34357500       0.51734400      -0.21836400       1.02132700
O        5.39670000       2.08854000       3.08148000      -1.32429800       0.23255100      -0.00813200       1.11769300
O        4.10876000       7.73518000      27.56570000      -1.24742200       1.36785000       0.83528500      -0.79480700
O        0.78156000       2.14863000      25.51420000      -1.32096700      -0.66001800       0.47763000       0.92087400
O        5.45180000       0.09456000       5.12201000      -1.32012900      -0.15020100       0.58121000      -0.51306100
O        1.56532000       2.72713000       0.49850000      -1.32285300      -2.94824300      -0.25546400       1.23272500
O        2.71278000       3.27265000       2.89020000      -1.35908800       0.57826600      -0.51834700       1.61937100
O        4.34708000       6.01901000      23.75020000      -1.28625800      -0.39235100      -0.16777800      -0.65472500
O        7.69321000       2.88089000      23.67020000      -1.29114500       0.44218300      -0.93103700       1.60067700
O        6.41665000       1.16495000      27.02340000      -1.30436200      -0.56494500       0.29683400      -0.99980200
O        9.37619000       3.60985000       6.73662000      -1.32331500      -0.57204100      -0.51543300      -0.89446800
O        2.21700000       5.89571000      26.27660000      -1.30297400       0.95307000      -0.28166800      -1.03838500
O        8.89312000       6.98351000       4.87098000      -1.32440100      -0.41844400      -0.26170700      -0.33245800
O        2.58956000       7.39604000       5.94082000      -1.24247700       0.24243900      -0.68307300       2.25904200
O        2.52896000       0.78386000      23.09560000      -1.23548100      -1.44479000      -1.09151500       0.95870500
O        3.61851000       2.14593000       6.82954000      -1.31678000       1.58393800       0.37315200      -0.85732000
O        7.90756000       0.26434000       2.99433000      -1.29038900      -0.90623900       0.08181300       0.17972700
O        6.16433000       3.01245000       6.41823000      -1.31496800       0.40447600       0.73647600       0.39936700
O        5.53037000       0.80626000       0.78375000      -1.34463700      -0.18448100       1.22777500      -0.05691300
O        2.36250000       4.36619000      28.69130000      -1.35278100       0.76049700      -0.90524300      -0.16679200
O        4.08541000       4.05559000      26.73740000      -1.26958700       2.52269200      -1.27009000      -2.09897300
O        6.86485000       4.34346000       2.88690000      -1.33351400       1.48961500      -0.68475600       0.53285300
O        3.03053000       0.61561000      30.08968000      -1.31106500      -0.24510500      -2.27423400      -1.97733500
O        4.39624000       5.53881000       7.34104000      -1.31631300      -0.58280200       0.17236200       1.28517600
O        7.68527000       8.73731000       7.02020000      -1.32704800      -2.21125500      -0.02736300      -1.41722800
O        5.59821000       5.65054000      29.56430000      -1.29016300      -0.30904400       0.15698700       0.54301800
O       10.08660000       6.60029000       1.57613000      -1.31254200      -0.72441000       0.84797300      -1.64722900
O        4.21086000       6.96821000       1.34116000      -1.25323000      -2.00624900      -0.23766600      -0.96469700
O        8.36612000       0.41726000      28.88310000      -1.28715600      -1.01091900       0.98322500       0.50545000
O        5.92453000       3.03498000      29.35270000      -1.36559300       0.94955300       0.81322100       1.94179000
O        5.89039000       0.70249000      24.40460000      -1.32852900       0.15069200       2.55398700      -0.46896800
O        5.27700000       6.37123000       3.74183000      -1.32724300      -0.70699600       0.65234300      -0.27470900
O        1.47047000       2.28689000       5.50470000      -1.33483100       0.45993900      -0.18225700       0.00665800
O        0.39350000       3.70404000      23.26340000      -1.29492900       0.90737400      -1.16744100      -1.62560500
O        6.84622000       5.48839000       6.27107000      -1.23439300       2.07789900       1.28456000       1.09243200
H        1.90366000       6.46948000      23.13200000       0.60515700      -0.59989100      -0.13375700       0.05647800
H        1.67789000       6.08813000      24.55110000       0.68860700      -0.25556000      -0.38314400       0.82132000
H       10.03210000       7.83892000      26.36260000       0.65742800       0.14797800      -0.21828900       0.53168200
H        0.09892000       6.51467000      27.09700000       0.69374200       0.17803300      -3.44919700      -0.63833200
H        7.74818000       6.66723000      27.30160000       0.63204000       0.90561800       0.39364500       0.63615500
H        1.75248000       5.95237000      29.31390000       0.67633900       0.20659500      -0.25139000      -1.24582600
H        4.86380000       2.71175000      22.85640000       0.60978100       0.90456200      -0.34883000      -1.89039400
H        4.38994000       3.92869000      23.67440000       0.64004900       0.11942000      -0.26433100      -0.13775300
H        7.85420000       7.15024000      24.36280000       0.64459200      -1.49397000       0.20137300      -1.07844000
H        7.49806000       7.52060000      22.88400000       0.59347900      -0.09101500      -0.21139200       0.42650700
H        8.36236000       5.02020000       0.13092000       0.61790400      -0.21132500      -0.88259400      -1.76957600
H        6.71346000       6.82156000       0.12640000       0.68083900      -0.59646300      -0.91589900      -0.00370300
H        8.86813000       1.44305000       2.07823000       0.67690300      -0.04928500       1.10857600      -0.32973500
H        2.70169000       1.59163000      25.92670000       0.65530600       0.08477600      -0.07404000       0.16377400
H        0.75554000       4.34916000      27.56400000       0.67462000      -0.25593100       0.05270900       0.17190200
H        7.42888000       4.02408000      29.46700000       0.66687000       0.31233400      -0.04438000       0.00060900
H        7.09749000       2.99410000      26.81270000       0.66003200      -0.11184000       0.59392700       0.13576400
H        0.31454000       7.80321000      24.32620000       0.67052700       0.66980500      -0.80268500      -0.45852400
H        0.35129000       0.46788000      24.82640000       0.69005300       0.51605100       1.14930100       0.45506900
H        5.54946000       0.84859000       4.45329000       0.65980700       0.05799200      -0.65930700       0.69740300
H        9.37638000       4.17371000      27.90850000       0.66708800       0.35500600       0.35633900      -0.15930000
H        5.05001000       6.46957000      24.24800000       0.67746500      -0.11287900       0.05229900      -0.55876100
H        9.54833000       4.08988000       4.97254000       0.68429600       0.49236500       0.41040700      -0.78145300
H        0.12676000       4.70908000       3.58217000       0.66340300      -0.48555800      -0.64030600       1.18759300
H        7.68161000       7.92348000      29.87130000       0.61683200      -0.53352000      -0.26929200       1.41693000
H        9.02503000       3.04543000       1.97363000       0.65961800      -0.16701300      -0.58431700       0.14024300
H        1.03268000       8.34388000       6.52792000       0.66745800       0.13438000       0.11568600      -0.27698400
H        0.29536000       0.90898000       6.25732000       0.65111200       0.45283200      -0.24521900      -0.30606300
H        4.04184000       1.35036000      25.21230000       0.66338100      -0.17419500      -0.12300100       0.81427600
H        7.08527000       5.51339000      26.63700000       0.69152800      -0.11357800       0.02438400       0.15296200
H        2.21277000       6.35098000       4.23783000       0.66887500      -0.71454800       0.00688400      -1.03633700
H        4.48503000       2.34877000       3.25479000       0.64602400      -0.62378100       0.09782000      -0.44832700
H        5.87847000       2.94130000       3.22024000       0.68763000       0.44672700      -0.18780400      -0.38185500
H        3.97075000       8.62046000      27.11450000       0.64988300       0.32265900      -0.91741100       0.57850400
H        5.10831000       7.61625000      27.53550000       0.59352300      -1.75187100       0.19120500      -0.02181600
H        0.20895000       2.74281000      26.07790000       0.66035800       0.65619200      -0.59810300       0.24632800
H        0.75863000       2.70163000      24.73100000       0.65117100       0.32877400       0.19715700      -0.84478900
H        1.15071000       6.56185000       2.99698000       0.67477200       0.06748200       0.22173900      -0.07961000
H        6.30821000       8.71893000       5.54343000       0.64645600       0.12559800       0.29624500      -0.31272600
H        0.61778000       2.45021000       0.86261000       0.63344100       1.70377500       1.14934200      -0.66792000
H        1.88468000       1.84700000       0.30043000       0.68536700       1.21234200      -0.84271400      -0.34134400
H        7.34273000       3.63734000      25.48690000       0.65473800      -0.05825700       0.61348600       0.68508800
H        2.43763000       4.14641000       3.15496000       0.64018300      -0.00988700       0.81530700       0.29917600
H        2.42565000       3.22939000       1.98797000       0.70557300      -0.50760200      -0.54779500      -1.56197900
H        4.29338000       6.40137000      22.84300000       0.59626500       0.51574300      -0.11150000       1.07068900
H        8.62088000       2.85913000      23.41910000       0.64590200       0.57915500       0.09839400       0.05921900
H        6.18315000       0.83424000      26.11460000       0.65599600       0.08307100       0.44913000       0.59547700
H        9.27420000       4.08446000       7.55260000       0.61030000       0.43275300       0.35196200       0.68897300
H        7.09297000       0.56893000      27.32510000       0.63932500       0.69680600      -0.24993700       0.58328900
H        7.25539000       3.25759000      22.94290000       0.63590500      -0.97666600       1.04757400      -1.53138100
H        0.13904000       3.28584000       6.61542000       0.67778800       0.44923100      -0.08853800       0.09544200
H        2.91979000       5.18266000      26.28900000       0.66278100      -0.82958900       0.31627900       0.06595600
H        2.81822000       6.64359000      26.43280000       0.64189600      -0.20175900       0.33126300       0.42856500
H        9.43630000       7.59087000       5.39258000       0.66809600       0.20333600       0.19706500       0.19064100
H        3.27740000       8.07947000       6.06381000       0.64450900      -0.08091400      -0.26347300      -0.40485200
H        1.83546000       0.57488000      22.45360000       0.59478200       0.07216400       0.07533200       0.05595000
H        9.47646000       6.37943000       4.38211000       0.65714400      -0.22368200       0.04680000       0.23436600
H        3.20262000       1.23207000      22.62840000       0.60096700       1.21033300       0.96407800      -0.74987700
H        3.57450000       2.08268000       7.78941000       0.58751800       0.36190100      -0.02556700       0.17807900
H        4.55786000       2.40520000       6.50672000       0.69928900      -1.38278900      -0.36549300       0.91405200
H        6.97075000       8.73454000       3.05927000       0.62810200       1.35577500       0.16420600      -0.17442600
H        6.68376000       2.22469000       6.56042000       0.64341200       0.45455400      -0.49073100      -0.06246800
H        8.44444000       8.37820000       3.43515000       0.66573600      -0.21229100      -0.39034300       0.18239200
H        6.81197000       3.78084000       6.37089000       0.66923900      -1.05203100      -0.78414900      -0.46753100
H        5.63175000       2.81120000      28.50140000       0.67669500      -0.76429400      -0.86443300      -1.70103800
H        6.09542000       0.07148000       0.59327000       0.69101700       0.88057200      -1.50997900      -0.41583300
H        5.85488000       1.08945000       1.64803000       0.66137300      -0.55257900       0.55651400       0.31014100
H        2.23500000       3.71101000      29.42780000       0.67735600      -0.12840200       0.33089400      -0.58030400
H        5.05860000       4.17762000      26.47490000       0.63276100      -1.36063800       0.30261000       0.83085800
H        6.35529000       5.01378000       3.34100000       0.67841200      -0.75124800       1.00077100       0.07444500
H        3.97440000       3.18300000      26.22800000       0.63996700      -0.46186500       0.57666800       1.16115900
H        3.14443000       4.06594000      28.12820000       0.66865400      -1.16876700       0.64885300       1.12347000
H        7.73426000       4.39180000       3.37051000       0.65072200      -0.64592600      -0.24317600      -0.63851200
H        2.90907000       8.68261000      29.34790000       0.62274400       0.40721600       1.71387600       2.10300600
H        3.87856000       0.36738000       0.40453000       0.71432300      -0.37439800       0.41478800      -0.28537600
H        2.73627000       6.79445000       6.74994000       0.61519100      -0.04384200       1.03733600      -1.92212100
H        6.98859000       8.73115000       7.68351000       0.58935900       0.28898200      -0.02360100       0.47609000
H        5.72007000       4.72280000      29.85090000       0.68476500      -0.37281800       0.14078400      -0.17635600
H        8.54838000       0.04011000       7.37127000       0.70061300       1.61142400       0.03804900       0.77479100
H        4.49841000       4.60045000       7.23981000       0.63647400      -0.65737100      -1.38035400      -0.19799900
H        5.74956000       5.61455000      28.62230000       0.62120300       0.10788400       0.14797300      -0.52023000
H        0.52201000       6.68272000       0.72462000       0.65783500      -0.89013500       0.00338900       0.98904100
H        9.20951000       7.01341000       1.28511000       0.62577200       1.33608500      -0.72011600       0.66753000
H        1.02752000       7.25175000      28.55960000       0.70264700       0.39612400      -0.89764900       0.07957000
H        4.40088000       6.59225000       0.43146000       0.66631900       0.04441600       0.17437400       1.13626800
H        9.23344000       0.05538000      28.85970000       0.65958700       1.35670000      -0.46553800      -0.24798800
H        3.21052000       7.02019000       1.36971000       0.60393900       1.66113800      -0.05167100      -0.10643100
H        8.40421000       1.17031000      29.51310000       0.66125400      -0.00609200      -0.44634600      -0.38160600
H        5.83314000       2.25750000      29.94010000       0.70135700      -0.26297200      -0.43862900      -0.05863500
H        5.25928000       5.74831000       6.97930000       0.71913800       1.14330300       1.03840100      -0.84228100
H        6.46213000       1.46931000      24.08060000       0.63783300      -0.86463600      -1.16485000       0.71340000
H        6.37825000       8.71703000      24.13760000       0.68251700       0.59659400      -1.34468500      -0.24713000
H        5.28152000       7.22798000       4.20398000       0.64041900       0.14527400      -0.15870700       0.19519500
H        4.75997000       6.60371000       2.91865000       0.66409100       0.63973000      -0.58553000       0.20308300
H        1.61833000       2.26499000       4.53340000       0.65789000      -0.05241400       0.30764000       0.53174300
H        2.39024000       2.21589000       5.93946000       0.66736700      -1.21835700       0.15593900      -0.59770300