 vasp.6.4.3 19Mar24 (build Sep  4 2024 12:23:58) complex                         
 executed on              LinuxNV date 2025.10.06  11:45:54
 running    4 mpi-ranks, with    1 threads/rank, on    1 nodes
 distrk:  each k-point on    2 cores,    2 groups
 distr:  one band on NCORE=   1 cores,    2 groups
 OpenACC runtime initialized ...    4 GPUs detected


--------------------------------------------------------------------------------------------------------


 INCAR:
   ENCUT = 800.000000
   SIGMA = 0.100000
   EDIFF = 1.00e-07
   ALGO = fast
   METAGGA = R2SCAN
   PREC = Accurate
   IBRION = -1
   ICHARG = 2
   ISMEAR = 0
   ISTART = 0
   KPAR = 2
   NELM = 160
   NPAR = 2
   NCORE = 1
   LAECHG = .TRUE.
   LASPH = .TRUE.
   LVHAR = .TRUE.
   LMIXTAU = .TRUE.
   LREAL = Auto

 POTCAR:    PAW_PBE Cu 22Jun2005                  
 POTCAR:    PAW_PBE O_h 06Feb2004                 
 POTCAR:    PAW_PBE H_h 06Feb2004                 
 POTCAR:    PAW_PBE Cu 22Jun2005                  
   VRHFIN =Cu: d10 p1                                                                               
   LEXCH  = PE                                                                                      
   EATOM  =  1390.9808 eV,  102.2342 Ry                                                             
                                                                                                    
   TITEL  = PAW_PBE Cu 22Jun2005                                                                    
   LULTRA =        F    use ultrasoft PP ?                                                          
   IUNSCR =        1    unscreen: 0-lin 1-nonlin 2-no                                               
   RPACOR =    2.000    partial core radius                                                         
   POMASS =   63.546; ZVAL   =   11.000    mass and valenz                                          
   RCORE  =    2.300    outmost cutoff radius                                                       
   RWIGS  =    2.200; RWIGS  =    1.164    wigner-seitz radius (au A)                               
   ENMAX  =  295.446; ENMIN  =  221.585 eV                                                          
   ICORE  =        3    local potential                                                             
   LCOR   =        T    correct aug charges                                                         
   LPAW   =        T    paw PP                                                                      
   EAUG   =  586.980                                                                                
   DEXC   =    0.000                                                                                
   RMAX   =    2.344    core radius for proj-oper                                                   
   RAUG   =    1.300    factor for augmentation sphere                                              
   RDEP   =    2.302    radius for radial grids                                                     
   RDEPT  =    1.771    core radius for aug-charge                                                  
                                                                                                    
   Atomic configuration                                                                             
    9 entries                                                                                       
     n  l   j            E        occ.                                                              
     1  0  0.50     -8850.2468   2.0000                                                             
     2  0  0.50     -1062.3498   2.0000                                                             
     2  1  1.50      -916.8226   6.0000                                                             
     3  0  0.50      -114.6929   2.0000                                                             
     3  1  1.50       -72.1325   6.0000                                                             
     3  2  2.50        -5.0394  10.0000                                                             
     4  0  0.50        -4.6097   1.0000                                                             
     4  1  0.50        -4.0817   0.0000                                                             
     4  3  2.50        -1.3606   0.0000                                                             
   Description                                                                                      
     l       E           TYP  RCUT    TYP  RCUT                                                     
     2     -5.0393973     23  2.200                                                                 
     2     10.8846608     23  2.200                                                                 
     0     -4.6097109     23  2.200                                                                 
     0      8.2520465     23  2.200                                                                 
     1     -2.7211652     23  2.200                                                                 
     1     21.7055443     23  2.200                                                                 
     3      2.7211652     23  2.300                                                                 
  local pseudopotential read in
  partial core-charges read in
  partial kinetic energy density read in
  atomic valenz-charges read in
  non local Contribution for L=            2  read in
    real space projection operators read in
  non local Contribution for L=            2  read in
    real space projection operators read in
  non local Contribution for L=            0  read in
    real space projection operators read in
  non local Contribution for L=            0  read in
    real space projection operators read in
  non local Contribution for L=            1  read in
    real space projection operators read in
  non local Contribution for L=            1  read in
    real space projection operators read in
    PAW grid and wavefunctions read in
 
   number of l-projection  operators is LMAX  =            6
   number of lm-projection operators is LMMAX =           18
 
 POTCAR:    PAW_PBE O_h 06Feb2004                 
   VRHFIN =O: s2p4                                                                                  
   LEXCH  = PE                                                                                      
   EATOM  =   432.3788 eV,   31.7789 Ry                                                             
                                                                                                    
   TITEL  = PAW_PBE O_h 06Feb2004                                                                   
   LULTRA =        F    use ultrasoft PP ?                                                          
   IUNSCR =        1    unscreen: 0-lin 1-nonlin 2-no                                               
   RPACOR =    0.800    partial core radius                                                         
   POMASS =   16.000; ZVAL   =    6.000    mass and valenz                                          
   RCORE  =    1.100    outmost cutoff radius                                                       
   RWIGS  =    1.400; RWIGS  =    0.741    wigner-seitz radius (au A)                               
   ENMAX  =  700.000; ENMIN  =  500.000 eV                                                          
   ICORE  =        2    local potential                                                             
   LCOR   =        T    correct aug charges                                                         
   LPAW   =        T    paw PP                                                                      
   EAUG   =  888.804                                                                                
   DEXC   =    0.000                                                                                
   RMAX   =    1.128    core radius for proj-oper                                                   
   RAUG   =    1.300    factor for augmentation sphere                                              
   RDEP   =    1.125    radius for radial grids                                                     
   RDEPT  =    1.088    core radius for aug-charge                                                  
                                                                                                    
   Atomic configuration                                                                             
    4 entries                                                                                       
     n  l   j            E        occ.                                                              
     1  0  0.50      -514.6923   2.0000                                                             
     2  0  0.50       -23.9615   2.0000                                                             
     2  1  0.50        -9.0305   4.0000                                                             
     3  2  1.50        -9.5241   0.0000                                                             
   Description                                                                                      
     l       E           TYP  RCUT    TYP  RCUT                                                     
     0    -23.9615319     23  1.100                                                                 
     0    -25.3221145     23  1.100                                                                 
     1     -9.0304911     23  1.100                                                                 
     1     -5.4802209     23  1.100                                                                 
     2     -9.5240782      7  1.100                                                                 
  local pseudopotential read in
  partial core-charges read in
  partial kinetic energy density read in
  atomic valenz-charges read in
  non local Contribution for L=            0  read in
    real space projection operators read in
  non local Contribution for L=            0  read in
    real space projection operators read in
  non local Contribution for L=            1  read in
    real space projection operators read in
  non local Contribution for L=            1  read in
    real space projection operators read in
    PAW grid and wavefunctions read in
 
   number of l-projection  operators is LMAX  =            4
   number of lm-projection operators is LMMAX =            8
 
 POTCAR:    PAW_PBE H_h 06Feb2004                 
   VRHFIN =H: ultrasoft test                                                                        
   LEXCH  = PE                                                                                      
   EATOM  =    12.4884 eV,    0.9179 Ry                                                             
                                                                                                    
   TITEL  = PAW_PBE H_h 06Feb2004                                                                   
   LULTRA =        F    use ultrasoft PP ?                                                          
   IUNSCR =        0    unscreen: 0-lin 1-nonlin 2-no                                               
   RPACOR =    0.000    partial core radius                                                         
   POMASS =    1.000; ZVAL   =    1.000    mass and valenz                                          
   RCORE  =    0.800    outmost cutoff radius                                                       
   RWIGS  =    0.700; RWIGS  =    0.370    wigner-seitz radius (au A)                               
   ENMAX  =  700.000; ENMIN  =  350.000 eV                                                          
   RCLOC  =    0.701    cutoff for local pot                                                        
   LCOR   =        T    correct aug charges                                                         
   LPAW   =        T    paw PP                                                                      
   EAUG   = 1000.000                                                                                
   RMAX   =    0.819    core radius for proj-oper                                                   
   RAUG   =    1.000    factor for augmentation sphere                                              
   RDEP   =    0.817    radius for radial grids                                                     
   RDEPT  =    0.817    core radius for aug-charge                                                  
                                                                                                    
   Atomic configuration                                                                             
    2 entries                                                                                       
     n  l   j            E        occ.                                                              
     1  0  0.50        -6.4927   1.0000                                                             
     2  1  0.50        -3.4015   0.0000                                                             
   Description                                                                                      
     l       E           TYP  RCUT    TYP  RCUT                                                     
     0     -6.4927493     23  0.800                                                                 
     0      6.8029130     23  0.800                                                                 
     1     -6.8029130     23  0.800                                                                 
  local pseudopotential read in
  atomic valenz-charges read in
  non local Contribution for L=            0  read in
    real space projection operators read in
  non local Contribution for L=            0  read in
    real space projection operators read in
  non local Contribution for L=            1  read in
    real space projection operators read in
    PAW grid and wavefunctions read in
 
   number of l-projection  operators is LMAX  =            3
   number of lm-projection operators is LMMAX =            5
 
 Optimization of the real space projectors (new method)

 maximal supplied QI-value         = 16.25
 optimisation between [QCUT,QGAM] = [ 14.46, 28.93] = [ 58.58,234.33] Ry 
 Optimized for a Real-space Cutoff    1.35 Angstroem

   l    n(q)    QCUT    max X(q) W(low)/X(q) W(high)/X(q)  e(spline) 
   2     11    14.464     4.610    0.56E-04    0.10E-03    0.52E-06
   2     11    14.464     8.522    0.88E-04    0.16E-03    0.84E-06
   0     12    14.464    51.609    0.44E-04    0.29E-04    0.63E-06
   0     12    14.464    27.747    0.38E-04    0.27E-04    0.60E-06
   1     11    14.464    20.408    0.64E-04    0.66E-04    0.14E-06
   1     11    14.464    13.425    0.56E-04    0.59E-04    0.13E-06
 Optimization of the real space projectors (new method)

 maximal supplied QI-value         = 34.20
 optimisation between [QCUT,QGAM] = [ 14.37, 28.73] = [ 57.79,231.16] Ry 
 Optimized for a Real-space Cutoff    0.98 Angstroem

   l    n(q)    QCUT    max X(q) W(low)/X(q) W(high)/X(q)  e(spline) 
   0      8    14.366   280.207    0.54E-04    0.14E-03    0.22E-06
   0      8    14.366   228.978    0.55E-04    0.14E-03    0.22E-06
   1      8    14.366    86.127    0.24E-03    0.25E-03    0.26E-06
   1      8    14.366    65.368    0.24E-03    0.24E-03    0.26E-06
 Optimization of the real space projectors (new method)

 maximal supplied QI-value         = 47.24
 optimisation between [QCUT,QGAM] = [ 14.17, 28.82] = [ 56.25,232.56] Ry 
 Optimized for a Real-space Cutoff    0.95 Angstroem

   l    n(q)    QCUT    max X(q) W(low)/X(q) W(high)/X(q)  e(spline) 
   0      8    14.173    34.671    0.25E-03    0.45E-03    0.25E-06
   0      8    14.173    17.046    0.24E-03    0.43E-03    0.25E-06
   1      8    14.173     1.978    0.58E-04    0.22E-03    0.31E-06
 -----------------------------------------------------------------------------
|                                                                             |
|               ----> ADVICE to this user running VASP <----                  |
|                                                                             |
|     You enforced a specific xc type in the INCAR file but a different       |
|     type was found in the POTCAR file.                                      |
|     I HOPE YOU KNOW WHAT YOU ARE DOING!                                     |
|                                                                             |
 -----------------------------------------------------------------------------

  PAW_PBE Cu 22Jun2005                  :
 energy of atom  1       EATOM=-1390.9808
 kinetic energy error for atom=    0.0007 (will be added to EATOM!!)
  PAW_PBE O_h 06Feb2004                 :
 energy of atom  2       EATOM= -432.3788
 kinetic energy error for atom=    0.0500 (will be added to EATOM!!)
  PAW_PBE H_h 06Feb2004                 :
 energy of atom  3       EATOM=  -12.4884
 kinetic energy error for atom=    0.0035 (will be added to EATOM!!)
 
 
 POSCAR: Cu O  H
  positions in cartesian coordinates
  No initial velocities read in


 exchange-correlation table for R2SCAN
   RHO(1)=    0.500       N(1)  =     2000
   RHO(2)=  100.500       N(2)  =     4000
 


--------------------------------------------------------------------------------------------------------


 ion  position               nearest neighbor table
   1  0.701  0.124  0.326-   4 2.42  15 2.43  18 2.48  17 2.49   8 2.56   5 2.56   2 2.58  32 2.60
                            16 2.62
   2  0.955  0.134  0.322-   5 2.47  13 2.47   6 2.53  18 2.57   1 2.58  19 2.60   3 2.69  16 2.74

   3  0.218  0.114  0.334-  30 2.36  14 2.38   7 2.43  20 2.43  19 2.44   4 2.48  13 2.50   2 2.69
                             6 2.79
   4  0.462  0.111  0.329-  15 2.38  31 2.41  14 2.42   1 2.42  17 2.44   3 2.48   8 2.52   7 2.63
                            20 2.65
   5  0.830  0.374  0.330-  21 2.40   9 2.42  12 2.42  18 2.42   2 2.47   6 2.49  22 2.53   1 2.56
                             8 2.68
   6  0.076  0.386  0.329-   9 2.35  23 2.43  10 2.46   5 2.49   7 2.49   2 2.53  19 2.61  22 2.64
                             3 2.79
   7  0.321  0.362  0.327-   3 2.43  24 2.48   6 2.49   8 2.50  23 2.52  10 2.55  20 2.59   4 2.63
                            11 2.68
   8  0.567  0.371  0.325-  24 2.49   7 2.50  11 2.52   4 2.52  12 2.55   1 2.56  21 2.58  17 2.61
                             5 2.68
   9  0.951  0.612  0.331-   6 2.35   5 2.42  12 2.46  25 2.49  26 2.50  22 2.54  16 2.56  10 2.61
                            13 2.70
  10  0.207  0.621  0.326-   6 2.46  11 2.50  23 2.55   7 2.55  27 2.55  26 2.57   9 2.61  14 2.61
                            13 2.73
  11  0.453  0.625  0.320-  10 2.50   8 2.52  14 2.55  24 2.60  12 2.62  15 2.63   7 2.68  28 2.71
                            27 2.72
  12  0.709  0.611  0.330-  21 2.42   5 2.42  28 2.45   9 2.46  25 2.50  16 2.52   8 2.55  11 2.62
                            15 2.69
  13  0.069  0.887  0.329-  30 2.38  29 2.42   2 2.47  16 2.49   3 2.50  26 2.63  14 2.69   9 2.70
                            10 2.73
  14  0.334  0.880  0.327-   3 2.38  31 2.40   4 2.42  15 2.55  11 2.55  30 2.60  10 2.61  27 2.62
                            13 2.69
  15  0.585  0.881  0.327-   4 2.38   1 2.43  16 2.44  31 2.51  32 2.51  14 2.55  28 2.57  11 2.63
                            12 2.69
  16  0.825  0.864  0.332-  32 2.35  25 2.41  29 2.43  15 2.44  13 2.49  12 2.52   9 2.56   1 2.62
                             2 2.74
  17  0.580  0.196  0.395-   4 2.44   1 2.49  21 2.50  18 2.51  33 2.53  37 2.53  32 2.54  20 2.55
                            31 2.55   8 2.61  40 2.71  24 2.71
  18  0.828  0.200  0.393-   5 2.42  32 2.48   1 2.48  21 2.49  17 2.51  22 2.53  19 2.54   2 2.57
                            29 2.58  38 2.59  34 2.60  37 2.74
  19  0.078  0.195  0.395-  30 2.44   3 2.44  35 2.52  39 2.54  18 2.54  20 2.55  29 2.56  23 2.57
                             2 2.60   6 2.61  22 2.65  38 2.69
  20  0.330  0.204  0.400-  40 2.40   3 2.43  36 2.45  31 2.52  17 2.55  19 2.55  23 2.56  24 2.56
                            39 2.57   7 2.59   4 2.65  30 2.67
  21  0.703  0.444  0.394-   5 2.40  12 2.42  22 2.46  18 2.49  17 2.50  37 2.54  28 2.56  41 2.57
                             8 2.58  25 2.62  24 2.62  44 2.72
  22  0.944  0.454  0.402-  38 2.40  42 2.40  21 2.46  41 2.47  25 2.49  18 2.53   5 2.53   9 2.54
                            26 2.58  23 2.60   6 2.64  19 2.65
  23  0.199  0.453  0.395-   6 2.43  26 2.47  24 2.49   7 2.52  43 2.54  10 2.55  27 2.56  39 2.56
                            20 2.56  19 2.57  22 2.60  42 2.65
  24  0.445  0.463  0.392-  27 2.42   7 2.48  23 2.49   8 2.49  28 2.53  20 2.56  11 2.60  44 2.62
                            21 2.62  40 2.68  43 2.68  17 2.71
  25  0.830  0.704  0.397-  16 2.41  29 2.44  45 2.45  32 2.47   9 2.49  22 2.49  28 2.49  12 2.50
                            41 2.51  26 2.55  21 2.62  48 2.63
  26  0.081  0.700  0.397-  30 2.44  23 2.47  46 2.48   9 2.50  27 2.51  42 2.51  29 2.51  25 2.55
                            10 2.57  22 2.58  13 2.63  45 2.66
  27  0.328  0.703  0.397-  24 2.42  47 2.48  31 2.48  26 2.51  43 2.52  10 2.55  23 2.56  30 2.58
                            28 2.59  14 2.62  46 2.64  11 2.72
  28  0.584  0.702  0.395-  12 2.45  25 2.49  48 2.51  24 2.53  32 2.55  21 2.56  15 2.57  44 2.57
                            27 2.59  31 2.59  11 2.71  47 2.72
  29  0.951  0.944  0.397-  30 2.40  32 2.42  13 2.42  16 2.43  25 2.44  45 2.47  35 2.51  26 2.51
                            19 2.56  18 2.58  34 2.65
  30  0.188  0.948  0.394-   3 2.36  13 2.38  29 2.40  19 2.44  26 2.44  46 2.55  27 2.58  14 2.60
                            31 2.62  36 2.62  35 2.63  20 2.67
  31  0.446  0.951  0.393-  14 2.40   4 2.41  27 2.48  15 2.51  20 2.52  17 2.55  47 2.59  28 2.59
                            33 2.60  30 2.62  36 2.68  32 2.71
  32  0.713  0.951  0.396-  16 2.35  29 2.42  34 2.46  25 2.47  18 2.48  15 2.51  48 2.54  17 2.54
                            28 2.55   1 2.60  31 2.71  33 2.72
  33  0.562  0.042  0.466-  17 2.53  47 2.54  36 2.54  48 2.54  52 2.54  40 2.54  63 2.54  49 2.54
                            37 2.54  34 2.54  31 2.60  32 2.72
  34  0.813  0.042  0.466-  32 2.46  45 2.54  35 2.54  48 2.54  50 2.54  38 2.54  64 2.54  49 2.54
                            37 2.54  33 2.54  18 2.60  29 2.65
  35  0.063  0.042  0.466-  29 2.51  19 2.52  34 2.54  46 2.54  45 2.54  61 2.54  36 2.54  51 2.54
                            39 2.54  50 2.54  38 2.54  30 2.63
  36  0.313  0.042  0.466-  20 2.45  33 2.54  47 2.54  46 2.54  62 2.54  35 2.54  52 2.54  51 2.54
                            40 2.54  39 2.54  30 2.62  31 2.68
  37  0.688  0.292  0.466-  17 2.53  38 2.54  40 2.54  41 2.54  44 2.54  53 2.54  56 2.54  49 2.54
                            34 2.54  33 2.54  21 2.54  18 2.74
  38  0.937  0.292  0.466-  22 2.40  41 2.54  37 2.54  42 2.54  53 2.54  34 2.54  39 2.54  54 2.54
                            50 2.54  35 2.54  18 2.59  19 2.69
  39  0.187  0.292  0.466-  42 2.54  43 2.54  54 2.54  55 2.54  38 2.54  35 2.54  51 2.54  36 2.54
                            40 2.54  19 2.54  23 2.56  20 2.57
  40  0.438  0.292  0.466-  20 2.40  44 2.54  37 2.54  43 2.54  56 2.54  33 2.54  55 2.54  52 2.54
                            36 2.54  39 2.54  24 2.68  17 2.71
  41  0.813  0.542  0.466-  22 2.47  25 2.51  38 2.54  37 2.54  42 2.54  45 2.54  57 2.54  48 2.54
                            53 2.54  60 2.54  44 2.54  21 2.57
  42  0.063  0.542  0.466-  22 2.40  26 2.51  39 2.54  38 2.54  41 2.54  43 2.54  46 2.54  58 2.54
                            54 2.54  45 2.54  57 2.54  23 2.65
  43  0.313  0.542  0.466-  27 2.52  44 2.54  40 2.54  39 2.54  42 2.54  47 2.54  46 2.54  55 2.54
                            59 2.54  58 2.54  23 2.54  24 2.68
  44  0.562  0.542  0.466-  40 2.54  43 2.54  37 2.54  47 2.54  59 2.54  48 2.54  56 2.54  60 2.54
                            41 2.54  28 2.57  24 2.62  21 2.72
  45  0.937  0.792  0.466-  25 2.45  29 2.47  34 2.54  48 2.54  35 2.54  41 2.54  64 2.54  46 2.54
                            57 2.54  42 2.54  61 2.54  26 2.66
  46  0.187  0.792  0.466-  26 2.48  35 2.54  36 2.54  42 2.54  45 2.54  61 2.54  43 2.54  58 2.54
                            62 2.54  47 2.54  30 2.55  27 2.64
  47  0.438  0.792  0.466-  27 2.48  33 2.54  48 2.54  36 2.54  44 2.54  63 2.54  43 2.54  59 2.54
                            62 2.54  46 2.54  31 2.59  28 2.72
  48  0.688  0.792  0.466-  28 2.51  45 2.54  47 2.54  34 2.54  33 2.54  41 2.54  44 2.54  60 2.54
                            64 2.54  63 2.54  32 2.54  25 2.63
  49  0.688  0.125  0.534-  80 2.49  50 2.54  52 2.54  53 2.54  56 2.54  64 2.54  63 2.54  37 2.54
                            34 2.54  33 2.54  65 2.58  66 2.66
  50  0.937  0.125  0.534-  66 2.53  53 2.54  64 2.54  49 2.54  54 2.54  61 2.54  34 2.54  51 2.54
                            38 2.54  35 2.54  77 2.57  67 2.60
  51  0.187  0.125  0.534-  68 2.49  54 2.54  55 2.54  61 2.54  62 2.54  50 2.54  35 2.54  39 2.54
                            36 2.54  52 2.54  78 2.55  67 2.57
  52  0.438  0.125  0.534-  79 2.43  68 2.53  56 2.54  63 2.54  49 2.54  55 2.54  62 2.54  33 2.54
                            40 2.54  36 2.54  51 2.54  65 2.63
  53  0.813  0.375  0.534-  66 2.52  50 2.54  49 2.54  54 2.54  38 2.54  57 2.54  37 2.54  60 2.54
                            41 2.54  56 2.54  70 2.54  69 2.60
  54  0.063  0.375  0.534-  71 2.48  70 2.52  51 2.54  50 2.54  53 2.54  39 2.54  55 2.54  58 2.54
                            38 2.54  42 2.54  57 2.54  67 2.57
  55  0.313  0.375  0.534-  71 2.51  56 2.54  52 2.54  51 2.54  54 2.54  40 2.54  39 2.54  59 2.54
                            58 2.54  43 2.54  68 2.54  72 2.65
  56  0.562  0.375  0.534-  52 2.54  55 2.54  49 2.54  40 2.54  59 2.54  37 2.54  60 2.54  44 2.54
                            53 2.54  65 2.62  72 2.63  69 2.64
  57  0.937  0.625  0.534-  70 2.47  74 2.53  60 2.54  53 2.54  64 2.54  41 2.54  58 2.54  45 2.54
                            54 2.54  61 2.54  42 2.54  73 2.68
  58  0.187  0.625  0.534-  71 2.43  74 2.44  54 2.54  61 2.54  57 2.54  42 2.54  55 2.54  62 2.54
                            46 2.54  43 2.54  59 2.54  75 2.64
  59  0.438  0.625  0.534-  60 2.54  56 2.54  63 2.54  44 2.54  55 2.54  62 2.54  47 2.54  43 2.54
                            58 2.54  76 2.56  72 2.57  75 2.58
  60  0.688  0.625  0.534-  57 2.54  59 2.54  53 2.54  56 2.54  64 2.54  63 2.54  48 2.54  41 2.54
                            44 2.54  76 2.54  69 2.56  73 2.57
  61  0.063  0.875  0.534-  74 2.47  64 2.54  51 2.54  50 2.54  35 2.54  62 2.54  58 2.54  46 2.54
                            57 2.54  45 2.54  77 2.56  78 2.57
  62  0.313  0.875  0.534-  75 2.53  63 2.54  52 2.54  51 2.54  36 2.54  61 2.54  59 2.54  58 2.54
                            47 2.54  46 2.54  78 2.61  79 2.62
  63  0.562  0.875  0.534-  76 2.48  52 2.54  62 2.54  59 2.54  49 2.54  47 2.54  33 2.54  60 2.54
                            48 2.54  64 2.54  80 2.58  79 2.60
  64  0.813  0.875  0.534-  77 2.52  50 2.54  61 2.54  57 2.54  49 2.54  45 2.54  34 2.54  60 2.54
                            48 2.54  63 2.54  73 2.55  80 2.57
  65  0.567  0.207  0.606-  79 2.37  80 2.43  81 2.47  88 2.49  49 2.58  69 2.59  56 2.62  68 2.62
                            66 2.62  85 2.63  72 2.63  52 2.63
  66  0.826  0.219  0.604-  67 2.43  70 2.46  82 2.48  53 2.52  50 2.53  69 2.56  77 2.57  86 2.58
                            80 2.60  65 2.62  49 2.66  85 2.69
  67  0.065  0.211  0.605-  66 2.43  78 2.47  86 2.48  68 2.48  87 2.56  71 2.56  83 2.56  54 2.57
                            51 2.57  70 2.58  50 2.60  77 2.62
  68  0.309  0.204  0.602-  79 2.36  87 2.42  78 2.46  67 2.48  51 2.49  84 2.52  52 2.53  55 2.54
                            65 2.62  71 2.63  88 2.66  72 2.67
  69  0.691  0.466  0.606-  92 2.46  89 2.48  73 2.49  70 2.52  72 2.55  66 2.56  76 2.56  60 2.56
                            65 2.59  53 2.60  85 2.61  56 2.64
  70  0.940  0.466  0.602-  66 2.46  57 2.47  71 2.48  74 2.52  54 2.52  69 2.52  53 2.54  90 2.54
                            86 2.55  89 2.57  67 2.58  73 2.63
  71  0.184  0.467  0.601-  74 2.42  58 2.43  90 2.46  70 2.48  54 2.48  55 2.51  87 2.56  67 2.56
                            72 2.59  75 2.60  68 2.63  91 2.75
  72  0.439  0.467  0.606-  91 2.48  92 2.48  75 2.52  76 2.54  69 2.55  88 2.56  59 2.57  71 2.59
                            65 2.63  56 2.63  55 2.65  68 2.67
  73  0.801  0.720  0.606-  93 2.33  76 2.41  96 2.45  77 2.46  80 2.47  69 2.49  64 2.55  89 2.57
                            60 2.57  70 2.63  57 2.68  74 2.74
  74  0.071  0.709  0.601-  71 2.42  58 2.44  93 2.45  61 2.47  78 2.51  75 2.52  70 2.52  57 2.53
                            90 2.56  77 2.57  94 2.57  73 2.74
  75  0.319  0.719  0.605-  94 2.48  76 2.49  95 2.49  74 2.52  72 2.52  62 2.53  78 2.56  59 2.58
                            71 2.60  79 2.61  58 2.64  91 2.66
  76  0.564  0.718  0.603-  73 2.41  63 2.48  75 2.49  95 2.53  92 2.53  72 2.54  80 2.54  60 2.54
                            59 2.56  69 2.56  96 2.62  79 2.64
  77  0.933  0.954  0.604-  93 2.40  73 2.46  83 2.48  80 2.49  64 2.52  78 2.54  82 2.55  61 2.56
                            74 2.57  66 2.57  50 2.57  67 2.62
  78  0.184  0.964  0.605-  83 2.44  68 2.46  67 2.47  74 2.51  77 2.54  51 2.55  75 2.56  84 2.57
                            61 2.57  79 2.61  62 2.61  94 2.62
  79  0.440  0.982  0.603-  68 2.36  65 2.37  52 2.43  84 2.49  80 2.52  81 2.58  63 2.60  78 2.61
                            75 2.61  62 2.62  76 2.64  95 2.66
  80  0.688  0.969  0.603-  65 2.43  73 2.47  77 2.49  49 2.49  96 2.51  79 2.52  76 2.54  82 2.56
                            64 2.57  63 2.58  81 2.59  66 2.60
  81  0.566  0.054  0.675-  88 2.40  65 2.47  96 2.48  84 2.51  85 2.51  82 2.54  79 2.58  80 2.59
                            95 2.60
  82  0.817  0.059  0.672-  83 2.46  85 2.47  66 2.48  96 2.51  81 2.54  77 2.55  80 2.56  86 2.62
                            93 2.74
  83  0.057  0.028  0.671-  78 2.44  82 2.46  77 2.48  93 2.49  67 2.56  94 2.57  84 2.65  86 2.67

  84  0.319  0.048  0.673-  87 2.48  88 2.49  79 2.49  81 2.51  68 2.52  95 2.56  78 2.57  83 2.65
                            94 2.69
  85  0.692  0.300  0.678-  82 2.47  89 2.47  88 2.50  81 2.51  92 2.55  69 2.61  65 2.63  66 2.69
                            86 2.70
  86  0.957  0.309  0.673-  90 2.35  67 2.48  89 2.50  87 2.55  70 2.55  66 2.58  82 2.62  83 2.67
                            85 2.70
  87  0.208  0.299  0.670-  88 2.41  68 2.42  91 2.42  84 2.48  90 2.52  86 2.55  67 2.56  71 2.56

  88  0.446  0.290  0.673-  81 2.40  87 2.41  84 2.49  65 2.49  85 2.50  91 2.51  72 2.56  92 2.63
                            68 2.66
  89  0.816  0.542  0.673-  93 2.44  85 2.47  69 2.48  86 2.50  92 2.51  73 2.57  70 2.57  90 2.61
                            96 2.68
  90  0.074  0.540  0.670-  86 2.35  94 2.41  71 2.46  87 2.52  93 2.53  70 2.54  91 2.55  74 2.56
                            89 2.61
  91  0.325  0.539  0.676-  87 2.42  72 2.48  92 2.48  94 2.51  88 2.51  95 2.54  90 2.55  75 2.66
                            71 2.75
  92  0.569  0.553  0.671-  69 2.46  95 2.47  72 2.48  91 2.48  89 2.51  76 2.53  85 2.55  96 2.60
                            88 2.63
  93  0.937  0.781  0.665-  73 2.33  77 2.40  89 2.44  74 2.45  83 2.49  96 2.52  90 2.53  94 2.58
                            82 2.74
  94  0.191  0.779  0.673-  90 2.41  75 2.48  91 2.51  95 2.57  74 2.57  83 2.57  93 2.58  78 2.62
                            84 2.69
  95  0.444  0.794  0.673-  92 2.47  75 2.49  96 2.52  76 2.53  91 2.54  84 2.56  94 2.57  81 2.60
                            79 2.66
  96  0.692  0.812  0.673-  73 2.45  81 2.48  80 2.51  82 2.51  93 2.52  95 2.52  92 2.60  76 2.62
                            89 2.68
  97  0.115  0.702  0.787- 147 0.98 148 0.99
  98  0.006  0.845  0.904- 150 0.91 149 0.98
  99  0.135  0.779  0.975- 152 0.97 230 0.98
 100  0.444  0.337  0.786- 153 0.93 154 0.98
 101  0.698  0.823  0.787- 156 0.98 155 1.01
 102  0.714  0.854  0.018- 158 0.96 171 1.02
 103  0.360  0.163  0.867- 160 0.98 175 0.99
 104  0.811  0.522  0.975- 162 0.98 157 1.01
 105  0.706  0.445  0.877- 188 0.99 163 1.00
 106  0.977  0.974  0.815- 164 0.95 165 0.95
 107  0.986  0.497  0.902- 167 0.98 161 0.98
 108  0.935  0.487  0.133- 169 0.98 170 0.99
 109  0.904  0.251  0.050- 172 0.97 159 1.00
 110  0.015  0.998  0.217- 173 0.97 174 0.98
 111  0.686  0.736  0.890- 151 0.95 176 0.98
 112  0.173  0.678  0.115- 184 0.97 177 0.99
 113  0.532  0.238  0.102- 178 0.96 179 0.99
 114  0.405  0.881  0.915- 180 1.00 181 1.01
 115  0.077  0.245  0.847- 183 0.96 182 1.00
 116  0.538  0.011  0.170- 185 0.97 166 1.01
 117  0.154  0.311  0.017- 187 0.96 186 1.05
 118  0.268  0.373  0.096- 190 0.95 189 0.95
 119  0.429  0.685  0.788- 168 0.97 191 0.99
 120  0.759  0.328  0.786- 196 0.93 192 0.96
 121  0.633  0.133  0.897- 195 0.95 193 0.99
 122  0.925  0.411  0.224- 194 0.95 197 0.97
 123  0.219  0.671  0.872- 199 0.97 198 1.00
 124  0.877  0.795  0.162- 200 0.97 203 0.97
 125  0.255  0.842  0.197- 201 0.98 222 1.02
 126  0.249  0.089  0.767- 204 0.93 202 0.97
 127  0.357  0.244  0.227- 205 0.96 206 1.03
 128  0.780  0.030  0.099- 209 0.96 207 0.99
 129  0.608  0.343  0.213- 208 0.95 210 1.01
 130  0.545  0.092  0.026- 212 0.95 213 0.97
 131  0.233  0.497  0.952- 214 0.99 218 1.01
 132  0.403  0.462  0.887- 215 1.02 217 1.02
 133  0.677  0.495  0.096- 216 0.96 219 1.00
 134  0.299  0.070  0.999- 221 0.99 220 1.04
 135  0.434  0.631  0.244- 226 0.95 236 0.96
 136  0.758  0.995  0.233- 225 0.94 223 0.96
 137  0.552  0.643  0.981- 227 0.95 224 0.98
 138  0.995  0.752  0.052- 229 1.01 228 1.03
 139  0.415  0.793  0.045- 233 1.00 231 1.00
 140  0.825  0.048  0.959- 232 0.94 234 0.98
 141  0.584  0.346  0.974- 211 0.93 235 0.98
 142  0.581  0.080  0.810- 238 0.95 237 1.01
 143  0.520  0.726  0.124- 239 0.97 240 1.00
 144  0.145  0.260  0.183- 241 0.98 242 1.02
 145  0.039  0.422  0.772- 244 0.98 243 1.01
 146  0.675  0.625  0.208- 246 1.02 245 1.04
 147  0.188  0.737  0.768-  97 0.98
 148  0.165  0.693  0.815-  97 0.99
 149  0.989  0.893  0.875-  98 0.98
 150  0.010  0.742  0.899-  98 0.91
 151  0.764  0.759  0.906- 111 0.95
 152  0.173  0.678  0.973-  99 0.97
 153  0.480  0.309  0.759- 100 0.93
 154  0.433  0.447  0.786- 100 0.98
 155  0.775  0.814  0.809- 101 1.01
 156  0.739  0.856  0.759- 101 0.98
 157  0.825  0.572  0.004- 104 1.01
 158  0.662  0.777  0.004- 102 0.96
 159  0.875  0.164  0.069- 109 1.00
 160  0.266  0.181  0.860- 103 0.98
 161  0.075  0.495  0.915- 107 0.98
 162  0.733  0.458  0.978- 104 0.98
 163  0.700  0.341  0.890- 105 1.00
 164  0.031  0.889  0.807- 106 0.95
 165  0.035  0.053  0.824- 106 0.95
 166  0.547  0.097  0.148- 116 1.01
 167  0.925  0.475  0.926- 107 0.98
 168  0.498  0.737  0.805- 119 0.97
 169  0.942  0.466  0.165- 108 0.98
 170  0.013  0.536  0.119- 108 0.99
 171  0.758  0.902  0.991- 102 1.02
 172  0.890  0.347  0.066- 109 0.97
 173  0.102  0.950  0.217- 110 0.97
 174  0.029  0.104  0.208- 110 0.98
 175  0.399  0.154  0.837- 103 0.99
 176  0.699  0.628  0.884- 111 0.98
 177  0.218  0.723  0.141- 112 0.99
 178  0.442  0.267  0.108- 113 0.96
 179  0.580  0.335  0.107- 113 0.99
 180  0.392  0.982  0.900- 114 1.00
 181  0.504  0.867  0.914- 114 1.01
 182  0.021  0.312  0.865- 115 1.00
 183  0.075  0.308  0.821- 115 0.96
 184  0.113  0.747  0.099- 112 0.97
 185  0.622  0.993  0.184- 116 0.97
 186  0.061  0.279  0.029- 117 1.05
 187  0.186  0.210  0.010- 117 0.96
 188  0.724  0.414  0.846- 105 0.99
 189  0.240  0.472  0.105- 118 0.95
 190  0.239  0.368  0.066- 118 0.95
 191  0.423  0.729  0.758- 119 0.99
 192  0.850  0.326  0.777- 120 0.96
 193  0.610  0.095  0.867- 121 0.99
 194  0.915  0.465  0.251- 122 0.95
 195  0.699  0.065  0.907- 121 0.95
 196  0.715  0.371  0.761- 120 0.93
 197  0.014  0.374  0.220- 122 0.97
 198  0.288  0.590  0.872- 123 1.00
 199  0.278  0.757  0.877- 123 0.97
 200  0.931  0.864  0.179- 124 0.97
 201  0.323  0.920  0.201- 125 0.98
 202  0.181  0.065  0.745- 126 0.97
 203  0.935  0.726  0.145- 124 0.97
 204  0.316  0.140  0.751- 126 0.93
 205  0.353  0.237  0.259- 127 0.96
 206  0.449  0.274  0.216- 127 1.03
 207  0.687  0.995  0.102- 128 0.99
 208  0.659  0.253  0.218- 129 0.95
 209  0.833  0.954  0.114- 128 0.96
 210  0.672  0.431  0.211- 129 1.01
 211  0.555  0.320  0.946- 141 0.93
 212  0.601  0.008  0.020- 130 0.95
 213  0.577  0.124  0.055- 130 0.97
 214  0.220  0.423  0.977- 131 0.99
 215  0.499  0.476  0.879- 132 1.02
 216  0.627  0.571  0.111- 133 0.96
 217  0.392  0.362  0.870- 132 1.02
 218  0.310  0.463  0.934- 131 1.01
 219  0.763  0.500  0.112- 133 1.00
 220  0.287  0.989  0.974- 134 1.04
 221  0.382  0.042  0.013- 134 0.99
 222  0.270  0.774  0.224- 125 1.02
 223  0.689  0.994  0.255- 136 0.96
 224  0.564  0.538  0.991- 137 0.98
 225  0.843  0.005  0.245- 136 0.94
 226  0.444  0.524  0.240- 135 0.95
 227  0.567  0.639  0.950- 137 0.95
 228  0.051  0.761  0.024- 138 1.03
 229  0.908  0.799  0.043- 138 1.01
 230  0.101  0.826  0.948-  99 0.98
 231  0.434  0.751  0.014- 139 1.00
 232  0.911  0.006  0.958- 140 0.94
 233  0.317  0.799  0.045- 139 1.00
 234  0.829  0.133  0.979- 140 0.98
 235  0.575  0.257  0.994- 141 0.98
 236  0.519  0.655  0.232- 135 0.96
 237  0.637  0.167  0.799- 142 1.01
 238  0.629  0.993  0.801- 142 0.95
 239  0.521  0.823  0.140- 143 0.97
 240  0.469  0.752  0.097- 143 1.00
 241  0.160  0.258  0.150- 144 0.98
 242  0.236  0.252  0.197- 144 1.02
 243  0.109  0.381  0.751- 145 1.01
 244  0.057  0.532  0.773- 145 0.98
 245  0.730  0.694  0.187- 146 1.04
 246  0.725  0.626  0.238- 146 1.02
 
  LATTYP: Found a simple orthorhombic cell.
 ALAT       =     8.7818242399
 B/A-ratio  =     1.1547005384
 C/A-ratio  =     3.4310783653
  
  Lattice vectors:
  
 A1 = (   0.0000000000,  -8.7818242399,   0.0000000000)
 A2 = (  10.1403771778,   0.0000000000,   0.0000000000)
 A3 = (   0.0000000000,   0.0000000000,  30.1311271579)


Analysis of symmetry for initial positions (statically):
=====================================================================
 Subroutine PRICEL returns:
 Original cell was already a primitive cell.
 

 Routine SETGRP: Setting up the symmetry group for a 
 simple orthorhombic supercell.


 Subroutine GETGRP returns: Found  1 space group operations
 (whereof  1 operations were pure point group operations)
 out of a pool of  8 trial point group operations.


The static configuration has the point symmetry C_1 .


Analysis of symmetry for dynamics (positions and initial velocities):
=====================================================================
 Subroutine PRICEL returns:
 Original cell was already a primitive cell.
 

 Routine SETGRP: Setting up the symmetry group for a 
 simple orthorhombic supercell.


 Subroutine GETGRP returns: Found  1 space group operations
 (whereof  1 operations were pure point group operations)
 out of a pool of  8 trial point group operations.


The dynamic configuration has the point symmetry C_1 .


 Subroutine INISYM returns: Found  1 space group operations
 (whereof  1 operations are pure point group operations),
 and found     1 'primitive' translations


----------------------------------------------------------------------------------------

                                     Primitive cell                                     

  volume of cell :    2683.2073

  direct lattice vectors                    reciprocal lattice vectors
    10.140377178  0.000000000  0.000000000     0.098615661  0.000000000  0.000000000
     0.000000000  8.781824240  0.000000000     0.000000000  0.113871557  0.000000000
     0.000000000  0.000000000 30.131127158     0.000000000  0.000000000  0.033188271

  length of vectors
    10.140377178  8.781824240 30.131127158     0.098615661  0.113871557  0.033188271

  position of ions in fractional coordinates (direct lattice)
     0.700520294  0.124116581  0.325961586
     0.954900378  0.134393489  0.321549206
     0.217565872  0.113700408  0.333552075
     0.462019303  0.111359551  0.328936251
     0.830404023  0.374187630  0.330359032
     0.075727657  0.385811639  0.328630587
     0.320811538  0.362007928  0.327159019
     0.566674188  0.371091462  0.325225802
     0.950960682  0.611538087  0.331007199
     0.207435085  0.621054333  0.326204856
     0.452748445  0.624834869  0.319796201
     0.708602833  0.610813864  0.330454614
     0.069137172  0.887092452  0.328802834
     0.333795276  0.879562126  0.326513839
     0.585131095  0.881154051  0.327401957
     0.824961424  0.863807996  0.332247776
     0.580251592  0.196428436  0.394973608
     0.827798597  0.199972119  0.392720124
     0.078214448  0.195370569  0.395205926
     0.329690892  0.203880191  0.399692980
     0.702676032  0.443976091  0.394213596
     0.943785407  0.453510557  0.401667682
     0.198979778  0.453065319  0.395036665
     0.444586027  0.462687465  0.391943519
     0.829517468  0.704014318  0.397419583
     0.081089094  0.699688337  0.396599833
     0.328245187  0.703002000  0.396556688
     0.584008849  0.701722083  0.394678232
     0.951425162  0.943645622  0.396785687
     0.188005827  0.948430505  0.394452552
     0.446298981  0.950740959  0.393483454
     0.713297925  0.950924292  0.395889604
     0.562499787  0.041666628  0.465651349
     0.812500349  0.041666628  0.465651349
     0.062500042  0.041666628  0.465651349
     0.312500210  0.041666628  0.465651349
     0.687500068  0.291667190  0.465651349
     0.937499645  0.291667190  0.465651349
     0.187499929  0.291667190  0.465651349
     0.437500492  0.291667190  0.465651349
     0.812500349  0.541666500  0.465651349
     0.062500042  0.541666500  0.465651349
     0.312500210  0.541666500  0.465651349
     0.562499787  0.541666500  0.465651349
     0.937499645  0.791666949  0.465651349
     0.187499929  0.791666949  0.465651349
     0.437500492  0.791666949  0.465651349
     0.687500068  0.791666949  0.465651349
     0.687500068  0.125000224  0.534347750
     0.937499645  0.125000224  0.534347750
     0.187499929  0.125000224  0.534347750
     0.437500492  0.125000224  0.534347750
     0.812500349  0.374999534  0.534347750
     0.062500042  0.374999534  0.534347750
     0.312500210  0.374999534  0.534347750
     0.562499787  0.374999534  0.534347750
     0.937499645  0.624999983  0.534347750
     0.187499929  0.624999983  0.534347750
     0.437500492  0.624999983  0.534347750
     0.687500068  0.624999983  0.534347750
     0.062500042  0.875000432  0.534347750
     0.312500210  0.875000432  0.534347750
     0.562499787  0.875000432  0.534347750
     0.812500349  0.875000432  0.534347750
     0.567370414  0.207056068  0.606027777
     0.825719779  0.219228938  0.604278755
     0.064928058  0.210556480  0.604829680
     0.309224198  0.203692303  0.602460038
     0.691075872  0.465701646  0.605685937
     0.939607061  0.466381459  0.601962214
     0.184456650  0.466769761  0.600631364
     0.439229224  0.467244605  0.606303239
     0.801261122  0.719503127  0.605583054
     0.071269341  0.709465349  0.600651277
     0.318849087  0.718822175  0.604799811
     0.564058900  0.717635633  0.602609385
     0.933337078  0.954147996  0.603694641
     0.183536565  0.964330391  0.604657101
     0.440070416  0.981520441  0.603349483
     0.688168682  0.968829456  0.603459005
     0.565917806  0.053976940  0.674651164
     0.816558384  0.059220042  0.671899856
     0.057361574  0.027978469  0.671196265
     0.318544364  0.047514729  0.672600129
     0.691919036  0.300080021  0.677531906
     0.957383520  0.309160139  0.672865635
     0.208404477  0.299310249  0.669563402
     0.445525834  0.289730235  0.673479618
     0.816134337  0.541984202  0.673014982
     0.073664716  0.540270435  0.669998168
     0.324730525  0.539439172  0.675829347
     0.569018282  0.552575395  0.671445177
     0.937491755  0.780763747  0.665225695
     0.190975145  0.779204845  0.672895504
     0.443684680  0.793811150  0.672689737
     0.691999901  0.811981634  0.672955243
     0.115182106  0.702062559  0.786611794
     0.005874811  0.844627471  0.903915737
     0.135053162  0.778585384  0.975041519
     0.444439089  0.336590658  0.785768812
     0.698001650  0.822611544  0.787063155
     0.714367905  0.854144856  0.018385704
     0.359986610  0.163060654  0.866764787
     0.811230180  0.521608025  0.974533739
     0.706059536  0.445215014  0.876970180
     0.977441946  0.973605229  0.814652564
     0.985673395  0.497006075  0.901702079
     0.934827160  0.487420368  0.133153996
     0.904358865  0.251305417  0.050051563
     0.015066698  0.997868980  0.216923515
     0.685947858  0.736307153  0.890315183
     0.172600089  0.677593839  0.114751764
     0.532199139  0.237825302  0.102268992
     0.405188084  0.880816991  0.914857909
     0.077074253  0.244667844  0.846772172
     0.537632862  0.010767512  0.169990654
     0.154365067  0.310542539  0.016544353
     0.267522593  0.372661751  0.095920740
     0.428690168  0.685394041  0.788228063
     0.758670991  0.328051430  0.785573001
     0.632782182  0.132654670  0.896859910
     0.924639176  0.411059240  0.223576767
     0.218630921  0.671353678  0.872074910
     0.877000909  0.795223157  0.161659402
     0.255371172  0.842198591  0.197165541
     0.249395062  0.089259928  0.766503021
     0.356841756  0.244360390  0.226660621
     0.779809258  0.030100921  0.099376634
     0.607899479  0.343032372  0.213009954
     0.545381094  0.091810195  0.026011274
     0.232979500  0.497184854  0.952214627
     0.402885408  0.461816348  0.887368065
     0.676981722  0.494596553  0.095811218
     0.298857720  0.070100811  0.998624353
     0.433538114  0.630712919  0.243636422
     0.757887982  0.994931094  0.232988297
     0.552071181  0.643435788  0.981187987
     0.994696728  0.751585299  0.052309029
     0.415256743  0.793480923  0.044510781
     0.825030455  0.047513477  0.958580137
     0.584251443  0.345597898  0.974165349
     0.580884704  0.079994086  0.809946467
     0.520394844  0.725501880  0.124184866
     0.145011371  0.260411725  0.182691473
     0.038804967  0.421784802  0.772072013
     0.675144512  0.624971515  0.208125968
     0.187730690  0.736689761  0.767711074
     0.165466232  0.693264843  0.814808549
     0.989322175  0.892630026  0.874929101
     0.009755340  0.741835617  0.899302567
     0.764091894  0.759207861  0.906092887
     0.172821974  0.677805640  0.972877644
     0.479646853  0.308791195  0.758564387
     0.432916836  0.447366047  0.785712392
     0.774547126  0.814208962  0.808559198
     0.739426144  0.856382432  0.759480383
     0.824659660  0.571657991  0.004344876
     0.662052297  0.776781659  0.004194865
     0.874536503  0.164322350  0.068972859
     0.266428946  0.181241386  0.860462334
     0.074508077  0.495245621  0.914801489
     0.732603913  0.458228255  0.977958768
     0.699923669  0.340942829  0.889867142
     0.031018570  0.888563673  0.807344507
     0.034643090  0.053277883  0.823945280
     0.547263667  0.096630606  0.147796993
     0.924657913  0.475266856  0.926234849
     0.498010075  0.736700009  0.804749184
     0.941614876  0.465721004  0.165030003
     0.012500127  0.536230272  0.118886027
     0.757527049  0.902259005  0.991376786
     0.890009301  0.346787856  0.065501366
     0.101838421  0.950130607  0.216650375
     0.029127220  0.103506968  0.207669629
     0.398588724  0.153767596  0.836752634
     0.698718586  0.627818304  0.884035963
     0.218213777  0.723195981  0.140646249
     0.442294199  0.267458097  0.108020851
     0.579709206  0.334930411  0.106874196
     0.391578137  0.981625203  0.899883362
     0.503759368  0.867274246  0.913855624
     0.020605644  0.312328045  0.865480400
     0.074812405  0.307638815  0.820779119
     0.113478027  0.747208077  0.099464583
     0.622088300  0.992838026  0.183976855
     0.060923079  0.279009228  0.028628468
     0.185858964  0.210320766  0.009970918
     0.724108174  0.414189569  0.845866133
     0.240388494  0.472158163  0.104707666
     0.239207079  0.367735668  0.065977286
     0.423394507  0.728933969  0.758119664
     0.850153781  0.325573585  0.777239427
     0.609755425  0.094995752  0.866698410
     0.914581365  0.465103820  0.250657732
     0.699477926  0.064785059  0.906872812
     0.715495082  0.370946846  0.761435172
     0.013711620  0.374163717  0.219554349
     0.287937021  0.590157564  0.872486444
     0.277920629  0.756515938  0.877258918
     0.930566964  0.864384186  0.178970404
     0.323202968  0.920021829  0.201247367
     0.181005101  0.065463050  0.745196152
     0.934527369  0.726435627  0.145434652
     0.315828489  0.140297729  0.750997461
     0.352501681  0.237158014  0.258517046
     0.449476377  0.273883869  0.215946784
     0.687425120  0.994615219  0.101531880
     0.659123412  0.253328914  0.217728994
     0.832754034  0.954038679  0.114006688
     0.671766925  0.430530138  0.211438821
     0.555378750  0.320115721  0.945912174
     0.601103873  0.008139334  0.019689506
     0.577382862  0.124057368  0.054695266
     0.220406003  0.422578487  0.976657788
     0.498857184  0.475712094  0.878656144
     0.626731125  0.570926935  0.110882012
     0.391938084  0.362453166  0.870461960
     0.310090043  0.462994919  0.933526312
     0.762719164  0.500101104  0.111861398
     0.286879861  0.988702320  0.974006045
     0.382486759  0.041834247  0.013425717
     0.269839075  0.773694601  0.224018835
     0.689184424  0.994229645  0.255002409
     0.564088485  0.537792590  0.990699745
     0.843004146  0.004566905  0.244639703
     0.443613676  0.523860405  0.240276773
     0.566996661  0.639337551  0.949924636
     0.051478164  0.760971732  0.024048752
     0.908201918  0.798627917  0.042650578
     0.101329564  0.825768064  0.947843732
     0.433995691  0.750669772  0.014319511
     0.910561791  0.006305831  0.957803532
     0.316607553  0.799399966  0.045458306
     0.828786726  0.133265022  0.979488747
     0.575238958  0.257065040  0.993660139
     0.518647375  0.654569010  0.231630897
     0.637267223  0.167312617  0.799193468
     0.628995341  0.992621779  0.801085199
     0.520840587  0.823061337  0.139522826
     0.469407589  0.751974740  0.096864946
     0.159592683  0.257917938  0.150455706
     0.235715098  0.252326845  0.197120405
     0.108772088  0.380986901  0.751418952
     0.056702033  0.531912262  0.773273428
     0.729719405  0.693565464  0.187031835
     0.725420748  0.626010024  0.237544715

  ion indices of the primitive-cell ions
   primitive index   ion index
                 1           1
                 2           2
                 3           3
                 4           4
                 5           5
                 6           6
                 7           7
                 8           8
                 9           9
                10          10
                11          11
                12          12
                13          13
                14          14
                15          15
                16          16
                17          17
                18          18
                19          19
                20          20
                21          21
                22          22
                23          23
                24          24
                25          25
                26          26
                27          27
                28          28
                29          29
                30          30
                31          31
                32          32
                33          33
                34          34
                35          35
                36          36
                37          37
                38          38
                39          39
                40          40
                41          41
                42          42
                43          43
                44          44
                45          45
                46          46
                47          47
                48          48
                49          49
                50          50
                51          51
                52          52
                53          53
                54          54
                55          55
                56          56
                57          57
                58          58
                59          59
                60          60
                61          61
                62          62
                63          63
                64          64
                65          65
                66          66
                67          67
                68          68
                69          69
                70          70
                71          71
                72          72
                73          73
                74          74
                75          75
                76          76
                77          77
                78          78
                79          79
                80          80
                81          81
                82          82
                83          83
                84          84
                85          85
                86          86
                87          87
                88          88
                89          89
                90          90
                91          91
                92          92
                93          93
                94          94
                95          95
                96          96
                97          97
                98          98
                99          99
               100         100
               101         101
               102         102
               103         103
               104         104
               105         105
               106         106
               107         107
               108         108
               109         109
               110         110
               111         111
               112         112
               113         113
               114         114
               115         115
               116         116
               117         117
               118         118
               119         119
               120         120
               121         121
               122         122
               123         123
               124         124
               125         125
               126         126
               127         127
               128         128
               129         129
               130         130
               131         131
               132         132
               133         133
               134         134
               135         135
               136         136
               137         137
               138         138
               139         139
               140         140
               141         141
               142         142
               143         143
               144         144
               145         145
               146         146
               147         147
               148         148
               149         149
               150         150
               151         151
               152         152
               153         153
               154         154
               155         155
               156         156
               157         157
               158         158
               159         159
               160         160
               161         161
               162         162
               163         163
               164         164
               165         165
               166         166
               167         167
               168         168
               169         169
               170         170
               171         171
               172         172
               173         173
               174         174
               175         175
               176         176
               177         177
               178         178
               179         179
               180         180
               181         181
               182         182
               183         183
               184         184
               185         185
               186         186
               187         187
               188         188
               189         189
               190         190
               191         191
               192         192
               193         193
               194         194
               195         195
               196         196
               197         197
               198         198
               199         199
               200         200
               201         201
               202         202
               203         203
               204         204
               205         205
               206         206
               207         207
               208         208
               209         209
               210         210
               211         211
               212         212
               213         213
               214         214
               215         215
               216         216
               217         217
               218         218
               219         219
               220         220
               221         221
               222         222
               223         223
               224         224
               225         225
               226         226
               227         227
               228         228
               229         229
               230         230
               231         231
               232         232
               233         233
               234         234
               235         235
               236         236
               237         237
               238         238
               239         239
               240         240
               241         241
               242         242
               243         243
               244         244
               245         245
               246         246

----------------------------------------------------------------------------------------

 
 
 KPOINTS: KPOINTS created by Atomic Simulation Env

Automatic generation of k-mesh.
 Grid dimensions read from file:
 generate k-points for:    2    2    1

 Generating k-lattice:

  Cartesian coordinates                     Fractional coordinates (reciprocal lattice)
     0.049307831  0.000000000  0.000000000     0.500000000  0.000000000  0.000000000
     0.000000000  0.056935779  0.000000000     0.000000000  0.500000000  0.000000000
     0.000000000  0.000000000  0.033188271     0.000000000  0.000000000  1.000000000

  Length of vectors
     0.049307831  0.056935779  0.033188271

  Shift w.r.t. Gamma in fractional coordinates (k-lattice)
     0.500000000  0.500000000  0.000000000

 
 Subroutine IBZKPT returns following result:
 ===========================================
 
 Found      2 irreducible k-points:
 
 Following reciprocal coordinates:
            Coordinates               Weight
  0.250000  0.250000  0.000000      2.000000
 -0.250000  0.250000  0.000000      2.000000
 
 Following cartesian coordinates:
            Coordinates               Weight
  0.024654  0.028468  0.000000      2.000000
 -0.024654  0.028468  0.000000      2.000000
 


--------------------------------------------------------------------------------------------------------




 Dimension of arrays:
   k-points           NKPTS =      2   k-points in BZ     NKDIM =      2   number of bands    NBANDS=    874
   number of dos      NEDOS =    301   number of ions     NIONS =    246
   non local maximal  LDIM  =      6   non local SUM 2l+1 LMDIM =     18
   total plane-waves  NPLWV = ******
   max r-space proj   IRMAX =   8746   max aug-charges    IRDMAX=  24571
   dimension x,y,z NGX =    96 NGY =   84 NGZ =  280
   dimension x,y,z NGXF=   192 NGYF=  168 NGZF=  560
   support grid    NGXF=   192 NGYF=  168 NGZF=  560
   ions per type =              96  50 100
   NGX,Y,Z   is equivalent  to a cutoff of  15.74, 15.90, 15.45 a.u.
   NGXF,Y,Z  is equivalent  to a cutoff of  31.48, 31.80, 30.90 a.u.

 SYSTEM =  unknown system                          
 POSCAR =  Cu O  H                                 

 Startparameter for this run:
   NWRITE =      2    write-flag & timer
   PREC   = accura    normal or accurate (medium, high low for compatibility)
   ISTART =      0    job   : 0-new  1-cont  2-samecut
   ICHARG =      2    charge: 1-file 2-atom 10-const
   ISPIN  =      1    spin polarized calculation?
   LNONCOLLINEAR =      F non collinear calculations
   LSORBIT =      F    spin-orbit coupling
   INIWAV =      1    electr: 0-lowe 1-rand  2-diag
   LASPH  =      T    aspherical Exc in radial PAW
 Electronic Relaxation 1
   ENCUT  =  800.0 eV  58.80 Ry    7.67 a.u.  23.39 20.25 69.49*2*pi/ulx,y,z
   ENINI  =  800.0     initial cutoff
   ENAUG  = 1000.0 eV  augmentation charge cutoff
   NELM   =    160;   NELMIN=  2; NELMDL= -5     # of ELM steps 
   EDIFF  = 0.1E-06   stopping-criterion for ELM
   LREAL  =      T    real-space projection
   NLSPLINE    = F    spline interpolate recip. space projectors
   LCOMPAT=      F    compatible to vasp.4.4
   GGA_COMPAT  = T    GGA compatible to vasp.4.4-vasp.4.6
   LMAXPAW     = -100 max onsite density
   LMAXMIX     =    2 max onsite mixed and CHGCAR
   VOSKOWN=      0    Vosko Wilk Nusair interpolation
   ROPT   =   -0.00025  -0.00025  -0.00025
 Ionic relaxation
   EDIFFG = 0.1E-05   stopping-criterion for IOM
   NSW    =      0    number of steps for IOM
   NBLOCK =      1;   KBLOCK =      1    inner block; outer block 
   IBRION =     -1    ionic relax: 0-MD 1-quasi-New 2-CG
   NFREE  =      0    steps in history (QN), initial steepest desc. (CG)
   ISIF   =      2    stress and relaxation
   IWAVPR =     10    prediction:  0-non 1-charg 2-wave 3-comb
   ISYM   =      2    0-nonsym 1-usesym 2-fastsym
   LCORR  =      T    Harris-Foulkes like correction to forces

   POTIM  = 0.5000    time-step for ionic-motion
   TEIN   =    0.0    initial temperature
   TEBEG  =    0.0;   TEEND  =   0.0 temperature during run
   SMASS  =  -3.00    Nose mass-parameter (am)
   estimated Nose-frequenzy (Omega)   =  0.10E-29 period in steps = 0.13E+47 mass=  -0.235E-26a.u.
   SCALEE = 1.0000    scale energy and forces
   NPACO  =    256;   APACO  = 10.0  distance and # of slots for P.C.
   PSTRESS=    0.0 pullay stress

  Mass of Ions in am
   POMASS =  63.55 16.00  1.00
  Ionic Valenz
   ZVAL   =  11.00  6.00  1.00
  Atomic Wigner-Seitz radii
   RWIGS  =  -1.00 -1.00 -1.00
  virtual crystal weights 
   VCA    =   1.00  1.00  1.00
   NELECT =    1456.0000    total number of electrons
   NUPDOWN=      -1.0000    fix difference up-down

 DOS related values:
   EMIN   =  10.00;   EMAX   =-10.00  energy-range for DOS
   EFERMI =   0.00;   METHOD = LEGACY      
   ISMEAR =     0;   SIGMA  =   0.10  broadening in eV -4-tet -1-fermi 0-gaus

 Electronic relaxation 2 (details)
   IALGO  =     68    algorithm
   LDIAG  =      T    sub-space diagonalisation (order eigenvalues)
   LSUBROT=      F    optimize rotation matrix (better conditioning)
   TURBO    =      0    0=normal 1=particle mesh
   IRESTART =      0    0=no restart 2=restart with 2 vectors
   NREBOOT  =      0    no. of reboots
   NMIN     =      0    reboot dimension
   EREF     =   0.00    reference energy to select bands
   IMIX   =      4    mixing-type and parameters
     AMIX     =   0.40;   BMIX     =  1.00
     AMIX_MAG =   1.60;   BMIX_MAG =  1.00
     AMIN     =   0.10
     WC   =   100.;   INIMIX=   1;  MIXPRE=   1;  MAXMIX= -45

 Intra band minimization:
   WEIMIN = 0.0000     energy-eigenvalue tresh-hold
   EBREAK =  0.29E-10  absolut break condition
   DEPER  =   0.30     relativ break condition  

   TIME   =   0.40     timestep for ELM

  volume/ion in A,a.u.               =      10.91        73.61
  Fermi-wavevector in a.u.,A,eV,Ry     =   1.335295  2.523342 24.259360  1.783013
  Thomas-Fermi vector in A             =   2.464010
 
 Write flags
   LWAVE        =      T    write WAVECAR
   LDOWNSAMPLE  =      F    k-point downsampling of WAVECAR
   LCHARG       =      T    write CHGCAR
   LVTOT        =      F    write LOCPOT, total local potential
   LVHAR        =      T    write LOCPOT, Hartree potential only
   WRT_POTENTIAL=  hartree ionic  ! write potential to hdf5 file
   LELF         =      F    write electronic localiz. function (ELF)
   LORBIT       =      0    0 simple, 1 ext, 2 COOP (PROOUT), +10 PAW based schemes


 Dipole corrections
   LMONO      =      F    monopole corrections only (constant potential shift)
   LDIPOL     =      F    correct potential (dipole corrections)
   IDIPOL     =      0    1-x, 2-y, 3-z, 4-all directions 
   EPSILON    =  1.0000000 bulk dielectric constant
   LVACPOTAV  =      F  vacuum potentials using an averaging scheme for the charge density
   VACPOTFLAT =  0.1000000 required flatness to determine vacuum potential
 Exchange correlation treatment:
   METAGGA = R2SCAN    functional components
   XC_C    = 1    coefficients multiplying the functional components
   LIBXC   =     F    Libxc                    
   VOSKOWN =     0    Vosko Wilk Nusair interpolation
   LHFCALC =     F    Hartree Fock is set to
   LHFONE  =     F    Hartree Fock one center treatment
   AEXX    =    0.0000 exact exchange contribution

 Parameters of functionals:
   R2SCAN:
     No parameter
 
 Accuracy and mixing parameters for tau-dependent meta-GGA functionals:
   LMAXTAU = 6
   LMIXTAU = T
 
 Van der Waals corrections
   IVDW    =     0    specifies the selected vdW correction

 Linear response parameters
   LEPSILON=     F    determine dielectric tensor
   LRPA    =     F    only Hartree local field effects (RPA)
   LNABLA  =     F    use nabla operator in PAW spheres
   LVEL    =     F    velocity operator in full k-point grid
   CSHIFT  =0.1000    complex shift for real part using Kramers Kronig
   OMEGAMAX=  -1.0    maximum frequency
   DEG_THRESHOLD= 0.2000000E-02 threshold for treating states as degnerate
   RTIME   =   -0.100 relaxation time in fs
  (WPLASMAI=    0.000 imaginary part of plasma frequency in eV, 0.658/RTIME)
   DFIELD  = 0.0000000 0.0000000 0.0000000 field for delta impulse in time
 
  Optional k-point grid parameters
   LKPOINTS_OPT  =     F    use optional k-point grid
   KPOINTS_OPT_MODE=     1    mode for optional k-point grid
 
 Orbital magnetization related:
   ORBITALMAG=     F  switch on orbital magnetization
   LCHIMAG   =     F  perturbation theory with respect to B field
   DQ        =  0.001000  dq finite difference perturbation B field
   LLRAUG    =     F  two centre corrections for induced B field
   LBONE     =     F  B-component reconstruction in AE one-centre
   LVGVCALC  =     T  calculate vGv susceptibility
   LVGVAPPL  =     F  apply vGv susceptibility instead of pGv for G=0

 Random number generation:
   RANDOM_GENERATOR = DEFAULT
   PCG_SEED         = not used


--------------------------------------------------------------------------------------------------------


 Static calculation
 charge density and potential will be updated during run
 non-spin polarized calculation
 RMM-DIIS sequential band-by-band and
  variant of blocked Davidson during initial phase
 perform sub-space diagonalisation
    before iterative eigenvector-optimisation
 modified Broyden-mixing scheme, WC =      100.0
 initial mixing is a Kerker type mixing with AMIX =  0.4000 and BMIX =      1.0000
 Hartree-type preconditioning will be used
 using additional bands           146
 real space projection scheme for non local part
 use partial core corrections
 calculate Harris-corrections to forces 
   (improved forces if not selfconsistent)
 use gradient corrections 
 use of overlap-Matrix (Vanderbilt PP)
 Gauss-broadening in eV      SIGMA  =   0.10


--------------------------------------------------------------------------------------------------------


  energy-cutoff  :      800.00
  volume of cell :     2683.21
      direct lattice vectors                 reciprocal lattice vectors
    10.140377178  0.000000000  0.000000000     0.098615661  0.000000000  0.000000000
     0.000000000  8.781824240  0.000000000     0.000000000  0.113871557  0.000000000
     0.000000000  0.000000000 30.131127158     0.000000000  0.000000000  0.033188271

  length of vectors
    10.140377178  8.781824240 30.131127158     0.098615661  0.113871557  0.033188271


 
 k-points in units of 2pi/SCALE and weight: KPOINTS created by Atomic Simulation Env
   0.02465392  0.02846789  0.00000000       0.500
  -0.02465392  0.02846789  0.00000000       0.500
 
 k-points in reciprocal lattice and weights: KPOINTS created by Atomic Simulation Env
   0.25000000  0.25000000  0.00000000       0.500
  -0.25000000  0.25000000  0.00000000       0.500
 
 position of ions in fractional coordinates (direct lattice) 
   0.70052029  0.12411658  0.32596159
   0.95490038  0.13439349  0.32154921
   0.21756587  0.11370041  0.33355208
   0.46201930  0.11135955  0.32893625
   0.83040402  0.37418763  0.33035903
   0.07572766  0.38581164  0.32863059
   0.32081154  0.36200793  0.32715902
   0.56667419  0.37109146  0.32522580
   0.95096068  0.61153809  0.33100720
   0.20743508  0.62105433  0.32620486
   0.45274845  0.62483487  0.31979620
   0.70860283  0.61081386  0.33045461
   0.06913717  0.88709245  0.32880283
   0.33379528  0.87956213  0.32651384
   0.58513109  0.88115405  0.32740196
   0.82496142  0.86380800  0.33224778
   0.58025159  0.19642844  0.39497361
   0.82779860  0.19997212  0.39272012
   0.07821445  0.19537057  0.39520593
   0.32969089  0.20388019  0.39969298
   0.70267603  0.44397609  0.39421360
   0.94378541  0.45351056  0.40166768
   0.19897978  0.45306532  0.39503667
   0.44458603  0.46268747  0.39194352
   0.82951747  0.70401432  0.39741958
   0.08108909  0.69968834  0.39659983
   0.32824519  0.70300200  0.39655669
   0.58400885  0.70172208  0.39467823
   0.95142516  0.94364562  0.39678569
   0.18800583  0.94843051  0.39445255
   0.44629898  0.95074096  0.39348345
   0.71329793  0.95092429  0.39588960
   0.56249979  0.04166663  0.46565135
   0.81250035  0.04166663  0.46565135
   0.06250004  0.04166663  0.46565135
   0.31250021  0.04166663  0.46565135
   0.68750007  0.29166719  0.46565135
   0.93749964  0.29166719  0.46565135
   0.18749993  0.29166719  0.46565135
   0.43750049  0.29166719  0.46565135
   0.81250035  0.54166650  0.46565135
   0.06250004  0.54166650  0.46565135
   0.31250021  0.54166650  0.46565135
   0.56249979  0.54166650  0.46565135
   0.93749964  0.79166695  0.46565135
   0.18749993  0.79166695  0.46565135
   0.43750049  0.79166695  0.46565135
   0.68750007  0.79166695  0.46565135
   0.68750007  0.12500022  0.53434775
   0.93749964  0.12500022  0.53434775
   0.18749993  0.12500022  0.53434775
   0.43750049  0.12500022  0.53434775
   0.81250035  0.37499953  0.53434775
   0.06250004  0.37499953  0.53434775
   0.31250021  0.37499953  0.53434775
   0.56249979  0.37499953  0.53434775
   0.93749964  0.62499998  0.53434775
   0.18749993  0.62499998  0.53434775
   0.43750049  0.62499998  0.53434775
   0.68750007  0.62499998  0.53434775
   0.06250004  0.87500043  0.53434775
   0.31250021  0.87500043  0.53434775
   0.56249979  0.87500043  0.53434775
   0.81250035  0.87500043  0.53434775
   0.56737041  0.20705607  0.60602778
   0.82571978  0.21922894  0.60427875
   0.06492806  0.21055648  0.60482968
   0.30922420  0.20369230  0.60246004
   0.69107587  0.46570165  0.60568594
   0.93960706  0.46638146  0.60196221
   0.18445665  0.46676976  0.60063136
   0.43922922  0.46724461  0.60630324
   0.80126112  0.71950313  0.60558305
   0.07126934  0.70946535  0.60065128
   0.31884909  0.71882217  0.60479981
   0.56405890  0.71763563  0.60260938
   0.93333708  0.95414800  0.60369464
   0.18353657  0.96433039  0.60465710
   0.44007042  0.98152044  0.60334948
   0.68816868  0.96882946  0.60345900
   0.56591781  0.05397694  0.67465116
   0.81655838  0.05922004  0.67189986
   0.05736157  0.02797847  0.67119626
   0.31854436  0.04751473  0.67260013
   0.69191904  0.30008002  0.67753191
   0.95738352  0.30916014  0.67286563
   0.20840448  0.29931025  0.66956340
   0.44552583  0.28973023  0.67347962
   0.81613434  0.54198420  0.67301498
   0.07366472  0.54027043  0.66999817
   0.32473052  0.53943917  0.67582935
   0.56901828  0.55257540  0.67144518
   0.93749176  0.78076375  0.66522569
   0.19097514  0.77920485  0.67289550
   0.44368468  0.79381115  0.67268974
   0.69199990  0.81198163  0.67295524
   0.11518211  0.70206256  0.78661179
   0.00587481  0.84462747  0.90391574
   0.13505316  0.77858538  0.97504152
   0.44443909  0.33659066  0.78576881
   0.69800165  0.82261154  0.78706315
   0.71436790  0.85414486  0.01838570
   0.35998661  0.16306065  0.86676479
   0.81123018  0.52160803  0.97453374
   0.70605954  0.44521501  0.87697018
   0.97744195  0.97360523  0.81465256
   0.98567340  0.49700608  0.90170208
   0.93482716  0.48742037  0.13315400
   0.90435887  0.25130542  0.05005156
   0.01506670  0.99786898  0.21692351
   0.68594786  0.73630715  0.89031518
   0.17260009  0.67759384  0.11475176
   0.53219914  0.23782530  0.10226899
   0.40518808  0.88081699  0.91485791
   0.07707425  0.24466784  0.84677217
   0.53763286  0.01076751  0.16999065
   0.15436507  0.31054254  0.01654435
   0.26752259  0.37266175  0.09592074
   0.42869017  0.68539404  0.78822806
   0.75867099  0.32805143  0.78557300
   0.63278218  0.13265467  0.89685991
   0.92463918  0.41105924  0.22357677
   0.21863092  0.67135368  0.87207491
   0.87700091  0.79522316  0.16165940
   0.25537117  0.84219859  0.19716554
   0.24939506  0.08925993  0.76650302
   0.35684176  0.24436039  0.22666062
   0.77980926  0.03010092  0.09937663
   0.60789948  0.34303237  0.21300995
   0.54538109  0.09181020  0.02601127
   0.23297950  0.49718485  0.95221463
   0.40288541  0.46181635  0.88736806
   0.67698172  0.49459655  0.09581122
   0.29885772  0.07010081  0.99862435
   0.43353811  0.63071292  0.24363642
   0.75788798  0.99493109  0.23298830
   0.55207118  0.64343579  0.98118799
   0.99469673  0.75158530  0.05230903
   0.41525674  0.79348092  0.04451078
   0.82503046  0.04751348  0.95858014
   0.58425144  0.34559790  0.97416535
   0.58088470  0.07999409  0.80994647
   0.52039484  0.72550188  0.12418487
   0.14501137  0.26041173  0.18269147
   0.03880497  0.42178480  0.77207201
   0.67514451  0.62497152  0.20812597
   0.18773069  0.73668976  0.76771107
   0.16546623  0.69326484  0.81480855
   0.98932217  0.89263003  0.87492910
   0.00975534  0.74183562  0.89930257
   0.76409189  0.75920786  0.90609289
   0.17282197  0.67780564  0.97287764
   0.47964685  0.30879119  0.75856439
   0.43291684  0.44736605  0.78571239
   0.77454713  0.81420896  0.80855920
   0.73942614  0.85638243  0.75948038
   0.82465966  0.57165799  0.00434488
   0.66205230  0.77678166  0.00419486
   0.87453650  0.16432235  0.06897286
   0.26642895  0.18124139  0.86046233
   0.07450808  0.49524562  0.91480149
   0.73260391  0.45822826  0.97795877
   0.69992367  0.34094283  0.88986714
   0.03101857  0.88856367  0.80734451
   0.03464309  0.05327788  0.82394528
   0.54726367  0.09663061  0.14779699
   0.92465791  0.47526686  0.92623485
   0.49801008  0.73670001  0.80474918
   0.94161488  0.46572100  0.16503000
   0.01250013  0.53623027  0.11888603
   0.75752705  0.90225900  0.99137679
   0.89000930  0.34678786  0.06550137
   0.10183842  0.95013061  0.21665038
   0.02912722  0.10350697  0.20766963
   0.39858872  0.15376760  0.83675263
   0.69871859  0.62781830  0.88403596
   0.21821378  0.72319598  0.14064625
   0.44229420  0.26745810  0.10802085
   0.57970921  0.33493041  0.10687420
   0.39157814  0.98162520  0.89988336
   0.50375937  0.86727425  0.91385562
   0.02060564  0.31232805  0.86548040
   0.07481240  0.30763881  0.82077912
   0.11347803  0.74720808  0.09946458
   0.62208830  0.99283803  0.18397685
   0.06092308  0.27900923  0.02862847
   0.18585896  0.21032077  0.00997092
   0.72410817  0.41418957  0.84586613
   0.24038849  0.47215816  0.10470767
   0.23920708  0.36773567  0.06597729
   0.42339451  0.72893397  0.75811966
   0.85015378  0.32557358  0.77723943
   0.60975543  0.09499575  0.86669841
   0.91458136  0.46510382  0.25065773
   0.69947793  0.06478506  0.90687281
   0.71549508  0.37094685  0.76143517
   0.01371162  0.37416372  0.21955435
   0.28793702  0.59015756  0.87248644
   0.27792063  0.75651594  0.87725892
   0.93056696  0.86438419  0.17897040
   0.32320297  0.92002183  0.20124737
   0.18100510  0.06546305  0.74519615
   0.93452737  0.72643563  0.14543465
   0.31582849  0.14029773  0.75099746
   0.35250168  0.23715801  0.25851705
   0.44947638  0.27388387  0.21594678
   0.68742512  0.99461522  0.10153188
   0.65912341  0.25332891  0.21772899
   0.83275403  0.95403868  0.11400669
   0.67176693  0.43053014  0.21143882
   0.55537875  0.32011572  0.94591217
   0.60110387  0.00813933  0.01968951
   0.57738286  0.12405737  0.05469527
   0.22040600  0.42257849  0.97665779
   0.49885718  0.47571209  0.87865614
   0.62673113  0.57092694  0.11088201
   0.39193808  0.36245317  0.87046196
   0.31009004  0.46299492  0.93352631
   0.76271916  0.50010110  0.11186140
   0.28687986  0.98870232  0.97400605
   0.38248676  0.04183425  0.01342572
   0.26983908  0.77369460  0.22401883
   0.68918442  0.99422965  0.25500241
   0.56408849  0.53779259  0.99069975
   0.84300415  0.00456691  0.24463970
   0.44361368  0.52386040  0.24027677
   0.56699666  0.63933755  0.94992464
   0.05147816  0.76097173  0.02404875
   0.90820192  0.79862792  0.04265058
   0.10132956  0.82576806  0.94784373
   0.43399569  0.75066977  0.01431951
   0.91056179  0.00630583  0.95780353
   0.31660755  0.79939997  0.04545831
   0.82878673  0.13326502  0.97948875
   0.57523896  0.25706504  0.99366014
   0.51864737  0.65456901  0.23163090
   0.63726722  0.16731262  0.79919347
   0.62899534  0.99262178  0.80108520
   0.52084059  0.82306134  0.13952283
   0.46940759  0.75197474  0.09686495
   0.15959268  0.25791794  0.15045571
   0.23571510  0.25232684  0.19712041
   0.10877209  0.38098690  0.75141895
   0.05670203  0.53191226  0.77327343
   0.72971940  0.69356546  0.18703183
   0.72542075  0.62601002  0.23754471
 
 position of ions in cartesian coordinates  (Angst):
   7.10354000  1.08997000  9.82159000
   9.68305000  1.18022000  9.68864000
   2.20620000  0.99849700 10.05030000
   4.68505000  0.97794000  9.91122000
   8.42061000  3.28605000  9.95409000
   0.76790700  3.38813000  9.90201000
   3.25315000  3.17909000  9.85767000
   5.74629000  3.25886000  9.79942000
   9.64310000  5.37042000  9.97362000
   2.10347000  5.45399000  9.82892000
   4.59104000  5.48719000  9.63582000
   7.18550000  5.36406000  9.95697000
   0.70107700  7.79029000  9.90720000
   3.38481000  7.72416000  9.83823000
   5.93345000  7.73814000  9.86499000
   8.36542000  7.58581000 10.01100000
   5.88397000  1.72500000 11.90100000
   8.39419000  1.75612000 11.83310000
   0.79312400  1.71571000 11.90800000
   3.34319000  1.79044000 12.04320000
   7.12540000  3.89892000 11.87810000
   9.57034000  3.98265000 12.10270000
   2.01773000  3.97874000 11.90290000
   4.50827000  4.06324000 11.80970000
   8.41162000  6.18253000 11.97470000
   0.82227400  6.14454000 11.95000000
   3.32853000  6.17364000 11.94870000
   5.92207000  6.16240000 11.89210000
   9.64781000  8.28693000 11.95560000
[...]
      0.63377      0.36591     14.03060         0.048528     -0.029664     -0.031430
      3.16887      0.36591     14.03060         0.027157     -0.225072     -0.102283
      6.97151      2.56137     14.03060         0.094048     -0.072138     -0.195755
      9.50660      2.56137     14.03060         0.045339     -0.345902      0.066882
      1.90132      2.56137     14.03060         0.011756      0.007381     -0.118292
      4.43642      2.56137     14.03060         0.284404      0.203562     -0.025720
      8.23906      4.75682     14.03060        -0.173844     -0.020306      0.092414
      0.63377      4.75682     14.03060         0.246732      0.027173      0.185730
      3.16887      4.75682     14.03060         0.085415     -0.081447     -0.169415
      5.70396      4.75682     14.03060         0.038046     -0.076748     -0.307482
      9.50660      6.95228     14.03060         0.149901     -0.038651      0.174936
      1.90132      6.95228     14.03060         0.161345      0.004472     -0.056811
      4.43642      6.95228     14.03060         0.150109     -0.000437     -0.149743
      6.97151      6.95228     14.03060         0.027954     -0.023583     -0.066691
      6.97151      1.09773     16.10050         0.035443      0.140912      0.137129
      9.50660      1.09773     16.10050         0.051925     -0.015159      0.131530
      1.90132      1.09773     16.10050        -0.077026      0.003732     -0.022453
      4.43642      1.09773     16.10050         0.079641      0.201085     -0.136613
      8.23906      3.29318     16.10050        -0.085145      0.071937      0.090955
      0.63377      3.29318     16.10050        -0.055989     -0.072305     -0.056933
      3.16887      3.29318     16.10050         0.105255      0.040368      0.117543
      5.70396      3.29318     16.10050         0.015454      0.033271      0.336596
      9.50660      5.48864     16.10050        -0.123162      0.154041     -0.022164
      1.90132      5.48864     16.10050         0.224015      0.137055     -0.258679
      4.43642      5.48864     16.10050        -0.035040     -0.014830      0.160181
      6.97151      5.48864     16.10050         0.008195     -0.022029      0.100955
      0.63377      7.68410     16.10050        -0.004884      0.136717     -0.039859
      3.16887      7.68410     16.10050        -0.014436      0.073643      0.189117
      5.70396      7.68410     16.10050        -0.012380      0.110639      0.037305
      8.23906      7.68410     16.10050        -0.043152      0.011668      0.030197
      5.75335      1.81833     18.26030         0.223593      0.959902     -0.300387
      8.37311      1.92523     18.20760        -0.641729     -0.161992      0.110058
      0.65839      1.84907     18.22420         0.031805      0.025689     -0.052200
      3.13565      1.78879     18.15280         0.281577      0.808611     -0.044800
      7.00777      4.08971     18.25000        -0.142462     -0.337805     -0.287112
      9.52797      4.09568     18.13780        -0.129838      0.130624      0.306350
      1.87046      4.09909     18.09770         0.646329     -0.429957      0.432657
      4.45395      4.10326     18.26860        -0.083404     -0.398623     -0.385929
      8.12509      6.31855     18.24690         0.340088     -0.626075     -0.726245
      0.72270      6.23040     18.09830        -0.373129      0.255140      0.319799
      3.23325      6.31257     18.22330        -0.082628     -0.117871     -0.066120
      5.71977      6.30215     18.15730        -0.267492      0.011173      0.183450
      9.46439      8.37916     18.19000         0.194357      0.473915     -0.341033
      1.86113      8.46858     18.21900         0.275308     -0.388302     -0.049955
      4.46248      8.61954     18.17960        -0.038151     -1.372056      0.219512
      6.97829      8.50809     18.18290         0.031996     -0.043968      0.088510
      5.73862      0.47402     20.32800         0.139718     -0.441853     -0.035427
      8.28021      0.52006     20.24510        -0.006185     -0.227180     -0.051002
      0.58167      0.24570     20.22390         0.338929      0.433210     -0.038893
      3.23016      0.41727     20.26620        -0.255514     -0.472167     -0.146035
      7.01632      2.63525     20.41480         0.111843     -0.001809     -0.574682
      9.70823      2.71499     20.27420        -0.516224     -0.763016     -0.059043
      2.11330      2.62849     20.17470        -0.715956     -0.172260      0.032170
      4.51780      2.54436     20.29270         0.131704      0.430278     -0.234777
      8.27591      4.75961     20.27870         0.048912      0.117281     -0.144400
      0.74699      4.74456     20.18780        -0.002068      0.276091      0.050151
      3.29289      4.73726     20.36350        -0.187868      0.309464     -0.296719
      5.77006      4.85262     20.23140         0.123868     -0.122342      0.195344
      9.50652      6.85653     20.04400         0.421479      0.247329      0.959348
      1.93656      6.84284     20.27510         0.128869      0.573579     -0.233765
      4.49913      6.97111     20.26890        -0.113750      0.319377     -0.195692
      7.01714      7.13068     20.27690        -0.125500     -0.369425     -0.092184
      1.16799      6.16539     23.70150         1.003817      0.685710     -0.352518
      0.05957      7.41737     27.23600        -0.912807      3.742509     -0.147134
      1.36949      6.83740     29.37910        -0.164537      0.982405      1.551248
      4.50678      2.95588     23.67610        -1.018910      1.122299      1.933003
      7.07800      7.22403     23.71510         1.885672     -0.219453      0.629349
      7.24396      7.50095      0.55398         1.343765      0.944589     -1.355333
      3.65040      1.43197     26.11660        -0.295374      0.161631     -1.211925
      8.22618      4.58067     29.36380         0.391950      0.686259      1.629939
      7.15971      3.90980     26.42410        -0.224687     -1.924199     -1.165090
      9.91163      8.55003     24.54640        -1.341463     -0.431694     -0.083165
      9.99510      4.36462     27.16930         0.135503     -0.323439      0.059105
      9.47950      4.28044      4.01208         0.015023      0.290117     -0.680283
      9.17054      2.20692      1.50811         0.063599     -0.587153     -0.008062
      0.15278      8.76311      6.53615        -0.242169      0.159588      0.485932
      6.95577      6.46612     26.82620        -0.744581      0.055964     -0.554778
      1.75023      5.95051      3.45760         0.517344     -0.218364      1.021327
      5.39670      2.08854      3.08148         0.232551     -0.008132      1.117693
      4.10876      7.73518     27.56570         1.367850      0.835285     -0.794807
      0.78156      2.14863     25.51420        -0.660018      0.477630      0.920874
      5.45180      0.09456      5.12201        -0.150201      0.581210     -0.513061
      1.56532      2.72713      0.49850        -2.948243     -0.255464      1.232725
      2.71278      3.27265      2.89020         0.578266     -0.518347      1.619371
      4.34708      6.01901     23.75020        -0.392351     -0.167778     -0.654725
      7.69321      2.88089     23.67020         0.442183     -0.931037      1.600677
      6.41665      1.16495     27.02340        -0.564945      0.296834     -0.999802
      9.37619      3.60985      6.73662        -0.572041     -0.515433     -0.894468
      2.21700      5.89571     26.27660         0.953070     -0.281668     -1.038385
      8.89312      6.98351      4.87098        -0.418444     -0.261707     -0.332458
      2.58956      7.39604      5.94082         0.242439     -0.683073      2.259042
      2.52896      0.78386     23.09560        -1.444790     -1.091515      0.958705
      3.61851      2.14593      6.82954         1.583938      0.373152     -0.857320
      7.90756      0.26434      2.99433        -0.906239      0.081813      0.179727
      6.16433      3.01245      6.41823         0.404476      0.736476      0.399367
      5.53037      0.80626      0.78375        -0.184481      1.227775     -0.056913
      2.36250      4.36619     28.69130         0.760497     -0.905243     -0.166792
      4.08541      4.05559     26.73740         2.522692     -1.270090     -2.098973
      6.86485      4.34346      2.88690         1.489615     -0.684756      0.532853
      3.03053      0.61561     30.08968        -0.245105     -2.274234     -1.977335
      4.39624      5.53881      7.34104        -0.582802      0.172362      1.285176
      7.68527      8.73731      7.02020        -2.211255     -0.027363     -1.417228
      5.59821      5.65054     29.56430        -0.309044      0.156987      0.543018
     10.08660      6.60029      1.57613        -0.724410      0.847973     -1.647229
      4.21086      6.96821      1.34116        -2.006249     -0.237666     -0.964697
      8.36612      0.41726     28.88310        -1.010919      0.983225      0.505450
      5.92453      3.03498     29.35270         0.949553      0.813221      1.941790
      5.89039      0.70249     24.40460         0.150692      2.553987     -0.468968
      5.27700      6.37123      3.74183        -0.706996      0.652343     -0.274709
      1.47047      2.28689      5.50470         0.459939     -0.182257      0.006658
      0.39350      3.70404     23.26340         0.907374     -1.167441     -1.625605
      6.84622      5.48839      6.27107         2.077899      1.284560      1.092432
      1.90366      6.46948     23.13200        -0.599891     -0.133757      0.056478
      1.67789      6.08813     24.55110        -0.255560     -0.383144      0.821320
     10.03210      7.83892     26.36260         0.147978     -0.218289      0.531682
      0.09892      6.51467     27.09700         0.178033     -3.449197     -0.638332
      7.74818      6.66723     27.30160         0.905618      0.393645      0.636155
      1.75248      5.95237     29.31390         0.206595     -0.251390     -1.245826
      4.86380      2.71175     22.85640         0.904562     -0.348830     -1.890394
      4.38994      3.92869     23.67440         0.119420     -0.264331     -0.137753
      7.85420      7.15024     24.36280        -1.493970      0.201373     -1.078440
      7.49806      7.52060     22.88400        -0.091015     -0.211392      0.426507
      8.36236      5.02020      0.13092        -0.211325     -0.882594     -1.769576
      6.71346      6.82156      0.12640        -0.596463     -0.915899     -0.003703
      8.86813      1.44305      2.07823        -0.049285      1.108576     -0.329735
      2.70169      1.59163     25.92670         0.084776     -0.074040      0.163774
      0.75554      4.34916     27.56400        -0.255931      0.052709      0.171902
      7.42888      4.02408     29.46700         0.312334     -0.044380      0.000609
      7.09749      2.99410     26.81270        -0.111840      0.593927      0.135764
      0.31454      7.80321     24.32620         0.669805     -0.802685     -0.458524
      0.35129      0.46788     24.82640         0.516051      1.149301      0.455069
      5.54946      0.84859      4.45329         0.057992     -0.659307      0.697403
      9.37638      4.17371     27.90850         0.355006      0.356339     -0.159300
      5.05001      6.46957     24.24800        -0.112879      0.052299     -0.558761
      9.54833      4.08988      4.97254         0.492365      0.410407     -0.781453
      0.12676      4.70908      3.58217        -0.485558     -0.640306      1.187593
      7.68161      7.92348     29.87130        -0.533520     -0.269292      1.416930
      9.02503      3.04543      1.97363        -0.167013     -0.584317      0.140243
      1.03268      8.34388      6.52792         0.134380      0.115686     -0.276984
      0.29536      0.90898      6.25732         0.452832     -0.245219     -0.306063
      4.04184      1.35036     25.21230        -0.174195     -0.123001      0.814276
      7.08527      5.51339     26.63700        -0.113578      0.024384      0.152962
      2.21277      6.35098      4.23783        -0.714548      0.006884     -1.036337
      4.48503      2.34877      3.25479        -0.623781      0.097820     -0.448327
      5.87847      2.94130      3.22024         0.446727     -0.187804     -0.381855
      3.97075      8.62046     27.11450         0.322659     -0.917411      0.578504
      5.10831      7.61625     27.53550        -1.751871      0.191205     -0.021816
      0.20895      2.74281     26.07790         0.656192     -0.598103      0.246328
      0.75863      2.70163     24.73100         0.328774      0.197157     -0.844789
      1.15071      6.56185      2.99698         0.067482      0.221739     -0.079610
      6.30821      8.71893      5.54343         0.125598      0.296245     -0.312726
      0.61778      2.45021      0.86261         1.703775      1.149342     -0.667920
      1.88468      1.84700      0.30043         1.212342     -0.842714     -0.341344
      7.34273      3.63734     25.48690        -0.058257      0.613486      0.685088
      2.43763      4.14641      3.15496        -0.009887      0.815307      0.299176
      2.42565      3.22939      1.98797        -0.507602     -0.547795     -1.561979
      4.29338      6.40137     22.84300         0.515743     -0.111500      1.070689
      8.62088      2.85913     23.41910         0.579155      0.098394      0.059219
      6.18315      0.83424     26.11460         0.083071      0.449130      0.595477
      9.27420      4.08446      7.55260         0.432753      0.351962      0.688973
      7.09297      0.56893     27.32510         0.696806     -0.249937      0.583289
      7.25539      3.25759     22.94290        -0.976666      1.047574     -1.531381
      0.13904      3.28584      6.61542         0.449231     -0.088538      0.095442
      2.91979      5.18266     26.28900        -0.829589      0.316279      0.065956
      2.81822      6.64359     26.43280        -0.201759      0.331263      0.428565
      9.43630      7.59087      5.39258         0.203336      0.197065      0.190641
      3.27740      8.07947      6.06381        -0.080914     -0.263473     -0.404852
      1.83546      0.57488     22.45360         0.072164      0.075332      0.055950
      9.47646      6.37943      4.38211        -0.223682      0.046800      0.234366
      3.20262      1.23207     22.62840         1.210333      0.964078     -0.749877
      3.57450      2.08268      7.78941         0.361901     -0.025567      0.178079
      4.55786      2.40520      6.50672        -1.382789     -0.365493      0.914052
      6.97075      8.73454      3.05927         1.355775      0.164206     -0.174426
      6.68376      2.22469      6.56042         0.454554     -0.490731     -0.062468
      8.44444      8.37820      3.43515        -0.212291     -0.390343      0.182392
      6.81197      3.78084      6.37089        -1.052031     -0.784149     -0.467531
      5.63175      2.81120     28.50140        -0.764294     -0.864433     -1.701038
      6.09542      0.07148      0.59327         0.880572     -1.509979     -0.415833
      5.85488      1.08945      1.64803        -0.552579      0.556514      0.310141
      2.23500      3.71101     29.42780        -0.128402      0.330894     -0.580304
      5.05860      4.17762     26.47490        -1.360638      0.302610      0.830858
      6.35529      5.01378      3.34100        -0.751248      1.000771      0.074445
      3.97440      3.18300     26.22800        -0.461865      0.576668      1.161159
      3.14443      4.06594     28.12820        -1.168767      0.648853      1.123470
      7.73426      4.39180      3.37051        -0.645926     -0.243176     -0.638512
      2.90907      8.68261     29.34790         0.407216      1.713876      2.103006
      3.87856      0.36738      0.40453        -0.374398      0.414788     -0.285376
      2.73627      6.79445      6.74994        -0.043842      1.037336     -1.922121
      6.98859      8.73115      7.68351         0.288982     -0.023601      0.476090
      5.72007      4.72280     29.85090        -0.372818      0.140784     -0.176356
      8.54838      0.04011      7.37127         1.611424      0.038049      0.774791
      4.49841      4.60045      7.23981        -0.657371     -1.380354     -0.197999
      5.74956      5.61455     28.62230         0.107884      0.147973     -0.520230
      0.52201      6.68272      0.72462        -0.890135      0.003389      0.989041
      9.20951      7.01341      1.28511         1.336085     -0.720116      0.667530
      1.02752      7.25175     28.55960         0.396124     -0.897649      0.079570
      4.40088      6.59225      0.43146         0.044416      0.174374      1.136268
      9.23344      0.05538     28.85970         1.356700     -0.465538     -0.247988
      3.21052      7.02019      1.36971         1.661138     -0.051671     -0.106431
      8.40421      1.17031     29.51310        -0.006092     -0.446346     -0.381606
      5.83314      2.25750     29.94010        -0.262972     -0.438629     -0.058635
      5.25928      5.74831      6.97930         1.143303      1.038401     -0.842281
      6.46213      1.46931     24.08060        -0.864636     -1.164850      0.713400
      6.37825      8.71703     24.13760         0.596594     -1.344685     -0.247130
      5.28152      7.22798      4.20398         0.145274     -0.158707      0.195195
      4.75997      6.60371      2.91865         0.639730     -0.585530      0.203083
      1.61833      2.26499      4.53340        -0.052414      0.307640      0.531743
      2.39024      2.21589      5.93946        -1.218357      0.155939     -0.597703
      1.10299      3.34576     22.64110        -1.206613      0.620595      1.182963
      0.57498      4.67116     23.29960         0.211608      0.194884      0.301667
      7.39963      6.09077      5.63548        -0.585746     -1.020126      1.217749
      7.35604      5.49751      7.15749        -0.807352      0.386871     -2.062357
 -----------------------------------------------------------------------------------
    total drift:                                0.006072     -0.021106     -0.004774


--------------------------------------------------------------------------------------------------------



  FREE ENERGIE OF THE ION-ELECTRON SYSTEM (eV)
  ---------------------------------------------------
  free  energy   TOTEN  =     -1810.16379783 eV

  energy  without entropy=    -1809.93204712  energy(sigma->0) =    -1810.04792248
 


--------------------------------------------------------------------------------------------------------


    POTLOK:  cpu time     12.1821: real time     12.2000


--------------------------------------------------------------------------------------------------------


 writing wavefunctions
     LOOP+:  cpu time   1290.6233: real time   1292.6803
    4ORBIT:  cpu time      0.0000: real time      0.0000

 total amount of memory used by VASP MPI-rank0  3314051. kBytes
=======================================================================

   base      :      30000. kBytes
   nonlr-proj:     188972. kBytes
   fftplans  :     312780. kBytes
   grid      :     814785. kBytes
   one-center:       3825. kBytes
   wavefun   :    1963689. kBytes
 
  
  
 General timing and accounting informations for this job:
 ========================================================
  
                  Total CPU time used (sec):     1357.876
                            User time (sec):     1329.408
                          System time (sec):       28.468
                         Elapsed time (sec):     1360.593
  
                   Maximum memory used (kb):     5016472.
                   Average memory used (kb):          N/A
  
                          Minor page faults:      6721921
                          Major page faults:         4064
                 Voluntary context switches:        32644
