 vasp.6.4.3 19Mar24 (build Sep  4 2024 12:23:58) complex                         
 executed on              LinuxNV date 2025.10.06  13:13:14
 running    4 mpi-ranks, with    1 threads/rank, on    1 nodes
 distrk:  each k-point on    2 cores,    2 groups
 distr:  one band on NCORE=   1 cores,    2 groups
 OpenACC runtime initialized ...    4 GPUs detected


--------------------------------------------------------------------------------------------------------


 INCAR:
   ENCUT = 800.000000
   SIGMA = 0.100000
   EDIFF = 1.00e-07
   ALGO = A
   METAGGA = R2SCAN
   PREC = Accurate
   IBRION = -1
   ICHARG = 1
   IDIPOL = 3
   ISMEAR = 0
   ISTART = 1
   KPAR = 2
   NELM = 300
   NPAR = 2
   NCORE = 1
   DIPOL = 0.5 0.5 0.5
   LASPH = .TRUE.
   LDIPOL = .TRUE.
   LVHAR = .TRUE.
   LMIXTAU = .TRUE.
   LVACPOTAV = .TRUE.
   LREAL = Auto

 POTCAR:    PAW_PBE Cu 22Jun2005                  
 POTCAR:    PAW_PBE O_h 06Feb2004                 
 POTCAR:    PAW_PBE H_h 06Feb2004                 
 POTCAR:    PAW_PBE Cu 22Jun2005                  
   VRHFIN =Cu: d10 p1                                                                               
   LEXCH  = PE                                                                                      
   EATOM  =  1390.9808 eV,  102.2342 Ry                                                             
                                                                                                    
   TITEL  = PAW_PBE Cu 22Jun2005                                                                    
   LULTRA =        F    use ultrasoft PP ?                                                          
   IUNSCR =        1    unscreen: 0-lin 1-nonlin 2-no                                               
   RPACOR =    2.000    partial core radius                                                         
   POMASS =   63.546; ZVAL   =   11.000    mass and valenz                                          
   RCORE  =    2.300    outmost cutoff radius                                                       
   RWIGS  =    2.200; RWIGS  =    1.164    wigner-seitz radius (au A)                               
   ENMAX  =  295.446; ENMIN  =  221.585 eV                                                          
   ICORE  =        3    local potential                                                             
   LCOR   =        T    correct aug charges                                                         
   LPAW   =        T    paw PP                                                                      
   EAUG   =  586.980                                                                                
   DEXC   =    0.000                                                                                
   RMAX   =    2.344    core radius for proj-oper                                                   
   RAUG   =    1.300    factor for augmentation sphere                                              
   RDEP   =    2.302    radius for radial grids                                                     
   RDEPT  =    1.771    core radius for aug-charge                                                  
                                                                                                    
   Atomic configuration                                                                             
    9 entries                                                                                       
     n  l   j            E        occ.                                                              
     1  0  0.50     -8850.2468   2.0000                                                             
     2  0  0.50     -1062.3498   2.0000                                                             
     2  1  1.50      -916.8226   6.0000                                                             
     3  0  0.50      -114.6929   2.0000                                                             
     3  1  1.50       -72.1325   6.0000                                                             
     3  2  2.50        -5.0394  10.0000                                                             
     4  0  0.50        -4.6097   1.0000                                                             
     4  1  0.50        -4.0817   0.0000                                                             
     4  3  2.50        -1.3606   0.0000                                                             
   Description                                                                                      
     l       E           TYP  RCUT    TYP  RCUT                                                     
     2     -5.0393973     23  2.200                                                                 
     2     10.8846608     23  2.200                                                                 
     0     -4.6097109     23  2.200                                                                 
     0      8.2520465     23  2.200                                                                 
     1     -2.7211652     23  2.200                                                                 
     1     21.7055443     23  2.200                                                                 
     3      2.7211652     23  2.300                                                                 
  local pseudopotential read in
  partial core-charges read in
  partial kinetic energy density read in
  atomic valenz-charges read in
  non local Contribution for L=            2  read in
    real space projection operators read in
  non local Contribution for L=            2  read in
    real space projection operators read in
  non local Contribution for L=            0  read in
    real space projection operators read in
  non local Contribution for L=            0  read in
    real space projection operators read in
  non local Contribution for L=            1  read in
    real space projection operators read in
  non local Contribution for L=            1  read in
    real space projection operators read in
    PAW grid and wavefunctions read in
 
   number of l-projection  operators is LMAX  =            6
   number of lm-projection operators is LMMAX =           18
 
 POTCAR:    PAW_PBE O_h 06Feb2004                 
   VRHFIN =O: s2p4                                                                                  
   LEXCH  = PE                                                                                      
   EATOM  =   432.3788 eV,   31.7789 Ry                                                             
                                                                                                    
   TITEL  = PAW_PBE O_h 06Feb2004                                                                   
   LULTRA =        F    use ultrasoft PP ?                                                          
   IUNSCR =        1    unscreen: 0-lin 1-nonlin 2-no                                               
   RPACOR =    0.800    partial core radius                                                         
   POMASS =   16.000; ZVAL   =    6.000    mass and valenz                                          
   RCORE  =    1.100    outmost cutoff radius                                                       
   RWIGS  =    1.400; RWIGS  =    0.741    wigner-seitz radius (au A)                               
   ENMAX  =  700.000; ENMIN  =  500.000 eV                                                          
   ICORE  =        2    local potential                                                             
   LCOR   =        T    correct aug charges                                                         
   LPAW   =        T    paw PP                                                                      
   EAUG   =  888.804                                                                                
   DEXC   =    0.000                                                                                
   RMAX   =    1.128    core radius for proj-oper                                                   
   RAUG   =    1.300    factor for augmentation sphere                                              
   RDEP   =    1.125    radius for radial grids                                                     
   RDEPT  =    1.088    core radius for aug-charge                                                  
                                                                                                    
   Atomic configuration                                                                             
    4 entries                                                                                       
     n  l   j            E        occ.                                                              
     1  0  0.50      -514.6923   2.0000                                                             
     2  0  0.50       -23.9615   2.0000                                                             
     2  1  0.50        -9.0305   4.0000                                                             
     3  2  1.50        -9.5241   0.0000                                                             
   Description                                                                                      
     l       E           TYP  RCUT    TYP  RCUT                                                     
     0    -23.9615319     23  1.100                                                                 
     0    -25.3221145     23  1.100                                                                 
     1     -9.0304911     23  1.100                                                                 
     1     -5.4802209     23  1.100                                                                 
     2     -9.5240782      7  1.100                                                                 
  local pseudopotential read in
  partial core-charges read in
  partial kinetic energy density read in
  atomic valenz-charges read in
  non local Contribution for L=            0  read in
    real space projection operators read in
  non local Contribution for L=            0  read in
    real space projection operators read in
  non local Contribution for L=            1  read in
    real space projection operators read in
  non local Contribution for L=            1  read in
    real space projection operators read in
    PAW grid and wavefunctions read in
 
   number of l-projection  operators is LMAX  =            4
   number of lm-projection operators is LMMAX =            8
 
 POTCAR:    PAW_PBE H_h 06Feb2004                 
   VRHFIN =H: ultrasoft test                                                                        
   LEXCH  = PE                                                                                      
   EATOM  =    12.4884 eV,    0.9179 Ry                                                             
                                                                                                    
   TITEL  = PAW_PBE H_h 06Feb2004                                                                   
   LULTRA =        F    use ultrasoft PP ?                                                          
   IUNSCR =        0    unscreen: 0-lin 1-nonlin 2-no                                               
   RPACOR =    0.000    partial core radius                                                         
   POMASS =    1.000; ZVAL   =    1.000    mass and valenz                                          
   RCORE  =    0.800    outmost cutoff radius                                                       
   RWIGS  =    0.700; RWIGS  =    0.370    wigner-seitz radius (au A)                               
   ENMAX  =  700.000; ENMIN  =  350.000 eV                                                          
   RCLOC  =    0.701    cutoff for local pot                                                        
   LCOR   =        T    correct aug charges                                                         
   LPAW   =        T    paw PP                                                                      
   EAUG   = 1000.000                                                                                
   RMAX   =    0.819    core radius for proj-oper                                                   
   RAUG   =    1.000    factor for augmentation sphere                                              
   RDEP   =    0.817    radius for radial grids                                                     
   RDEPT  =    0.817    core radius for aug-charge                                                  
                                                                                                    
   Atomic configuration                                                                             
    2 entries                                                                                       
     n  l   j            E        occ.                                                              
     1  0  0.50        -6.4927   1.0000                                                             
     2  1  0.50        -3.4015   0.0000                                                             
   Description                                                                                      
     l       E           TYP  RCUT    TYP  RCUT                                                     
     0     -6.4927493     23  0.800                                                                 
     0      6.8029130     23  0.800                                                                 
     1     -6.8029130     23  0.800                                                                 
  local pseudopotential read in
  atomic valenz-charges read in
  non local Contribution for L=            0  read in
    real space projection operators read in
  non local Contribution for L=            0  read in
    real space projection operators read in
  non local Contribution for L=            1  read in
    real space projection operators read in
    PAW grid and wavefunctions read in
 
   number of l-projection  operators is LMAX  =            3
   number of lm-projection operators is LMMAX =            5
 
 Optimization of the real space projectors (new method)

 maximal supplied QI-value         = 16.25
 optimisation between [QCUT,QGAM] = [ 14.46, 28.93] = [ 58.58,234.33] Ry 
 Optimized for a Real-space Cutoff    1.35 Angstroem

   l    n(q)    QCUT    max X(q) W(low)/X(q) W(high)/X(q)  e(spline) 
   2     11    14.464     4.610    0.56E-04    0.10E-03    0.52E-06
   2     11    14.464     8.522    0.88E-04    0.16E-03    0.84E-06
   0     12    14.464    51.609    0.44E-04    0.29E-04    0.63E-06
   0     12    14.464    27.747    0.38E-04    0.27E-04    0.60E-06
   1     11    14.464    20.408    0.64E-04    0.66E-04    0.14E-06
   1     11    14.464    13.425    0.56E-04    0.59E-04    0.13E-06
 Optimization of the real space projectors (new method)

 maximal supplied QI-value         = 34.20
 optimisation between [QCUT,QGAM] = [ 14.37, 28.73] = [ 57.79,231.16] Ry 
 Optimized for a Real-space Cutoff    0.98 Angstroem

   l    n(q)    QCUT    max X(q) W(low)/X(q) W(high)/X(q)  e(spline) 
   0      8    14.366   280.207    0.54E-04    0.14E-03    0.22E-06
   0      8    14.366   228.978    0.55E-04    0.14E-03    0.22E-06
   1      8    14.366    86.127    0.24E-03    0.25E-03    0.26E-06
   1      8    14.366    65.368    0.24E-03    0.24E-03    0.26E-06
 Optimization of the real space projectors (new method)

 maximal supplied QI-value         = 47.24
 optimisation between [QCUT,QGAM] = [ 14.17, 28.82] = [ 56.25,232.56] Ry 
 Optimized for a Real-space Cutoff    0.95 Angstroem

   l    n(q)    QCUT    max X(q) W(low)/X(q) W(high)/X(q)  e(spline) 
   0      8    14.173    34.671    0.25E-03    0.45E-03    0.25E-06
   0      8    14.173    17.046    0.24E-03    0.43E-03    0.25E-06
   1      8    14.173     1.978    0.58E-04    0.22E-03    0.31E-06
 -----------------------------------------------------------------------------
|                                                                             |
|               ----> ADVICE to this user running VASP <----                  |
|                                                                             |
|     You enforced a specific xc type in the INCAR file but a different       |
|     type was found in the POTCAR file.                                      |
|     I HOPE YOU KNOW WHAT YOU ARE DOING!                                     |
|                                                                             |
 -----------------------------------------------------------------------------

  PAW_PBE Cu 22Jun2005                  :
 energy of atom  1       EATOM=-1390.9808
 kinetic energy error for atom=    0.0007 (will be added to EATOM!!)
  PAW_PBE O_h 06Feb2004                 :
 energy of atom  2       EATOM= -432.3788
 kinetic energy error for atom=    0.0500 (will be added to EATOM!!)
  PAW_PBE H_h 06Feb2004                 :
 energy of atom  3       EATOM=  -12.4884
 kinetic energy error for atom=    0.0035 (will be added to EATOM!!)
 
 
 POSCAR: Cu O  H
  positions in cartesian coordinates
  No initial velocities read in


 exchange-correlation table for R2SCAN
   RHO(1)=    0.500       N(1)  =     2000
   RHO(2)=  100.500       N(2)  =     4000
 


--------------------------------------------------------------------------------------------------------


 ion  position               nearest neighbor table
   1  0.701  0.124  0.382-   4 2.42  15 2.43  18 2.48  17 2.49   8 2.56   5 2.56   2 2.58  32 2.60
                            16 2.62
   2  0.955  0.134  0.379-   5 2.47  13 2.47   6 2.53  18 2.57   1 2.58  19 2.60   3 2.69  16 2.74

   3  0.218  0.114  0.388-  30 2.36  14 2.38   7 2.43  20 2.43  19 2.44   4 2.48  13 2.50   2 2.69
                             6 2.79
   4  0.462  0.111  0.384-  15 2.38  31 2.41  14 2.42   1 2.42  17 2.44   3 2.48   8 2.52   7 2.63
                            20 2.65
   5  0.830  0.374  0.385-  21 2.40   9 2.42  12 2.42  18 2.42   2 2.47   6 2.49  22 2.53   1 2.56
                             8 2.68
   6  0.076  0.386  0.384-   9 2.35  23 2.43  10 2.46   5 2.49   7 2.49   2 2.53  19 2.61  22 2.64
                             3 2.79
   7  0.321  0.362  0.383-   3 2.43  24 2.48   6 2.49   8 2.50  23 2.52  10 2.55  20 2.59   4 2.63
                            11 2.68
   8  0.567  0.371  0.382-  24 2.49   7 2.50  11 2.52   4 2.52  12 2.55   1 2.56  21 2.58  17 2.61
                             5 2.68
   9  0.951  0.612  0.386-   6 2.35   5 2.42  12 2.46  25 2.49  26 2.50  22 2.54  16 2.56  10 2.61
                            13 2.70
  10  0.207  0.621  0.383-   6 2.46  11 2.50  23 2.55   7 2.55  27 2.55  26 2.57   9 2.61  14 2.61
                            13 2.73
  11  0.453  0.625  0.378-  10 2.50   8 2.52  14 2.55  24 2.60  12 2.62  15 2.63   7 2.68  28 2.71
                            27 2.72
  12  0.709  0.611  0.385-  21 2.42   5 2.42  28 2.45   9 2.46  25 2.50  16 2.52   8 2.55  11 2.62
                            15 2.69
  13  0.069  0.887  0.384-  30 2.38  29 2.42   2 2.47  16 2.49   3 2.50  26 2.63  14 2.69   9 2.70
                            10 2.73
  14  0.334  0.880  0.383-   3 2.38  31 2.40   4 2.42  15 2.55  11 2.55  30 2.60  10 2.61  27 2.62
                            13 2.69
  15  0.585  0.881  0.383-   4 2.38   1 2.43  16 2.44  31 2.51  32 2.51  14 2.55  28 2.57  11 2.63
                            12 2.69
  16  0.825  0.864  0.387-  32 2.35  25 2.41  29 2.43  15 2.44  13 2.49  12 2.52   9 2.56   1 2.62
                             2 2.74
  17  0.580  0.196  0.429-   4 2.44   1 2.49  21 2.50  18 2.51  33 2.53  37 2.53  32 2.54  20 2.55
                            31 2.55   8 2.61  40 2.71  24 2.71
  18  0.828  0.200  0.427-   5 2.42  32 2.48   1 2.48  21 2.49  17 2.51  22 2.53  19 2.54   2 2.57
                            29 2.58  38 2.59  34 2.60  37 2.74
  19  0.078  0.195  0.429-  30 2.44   3 2.44  35 2.52  39 2.54  18 2.54  20 2.55  29 2.56  23 2.57
                             2 2.60   6 2.61  22 2.65  38 2.69
  20  0.330  0.204  0.432-  40 2.40   3 2.43  36 2.45  31 2.52  17 2.55  19 2.55  23 2.56  24 2.56
                            39 2.57   7 2.59   4 2.65  30 2.67
  21  0.703  0.444  0.428-   5 2.40  12 2.42  22 2.46  18 2.49  17 2.50  37 2.54  28 2.56  41 2.57
                             8 2.58  25 2.62  24 2.62  44 2.72
  22  0.944  0.454  0.433-  38 2.40  42 2.40  21 2.46  41 2.47  25 2.49  18 2.53   5 2.53   9 2.54
                            26 2.58  23 2.60   6 2.64  19 2.65
  23  0.199  0.453  0.429-   6 2.43  26 2.47  24 2.49   7 2.52  43 2.54  10 2.55  27 2.56  39 2.56
                            20 2.56  19 2.57  22 2.60  42 2.65
  24  0.445  0.463  0.427-  27 2.42   7 2.48  23 2.49   8 2.49  28 2.53  20 2.56  11 2.60  44 2.62
                            21 2.62  40 2.68  43 2.68  17 2.71
  25  0.830  0.704  0.430-  16 2.41  29 2.44  45 2.45  32 2.47   9 2.49  22 2.49  28 2.49  12 2.50
                            41 2.51  26 2.55  21 2.62  48 2.63
  26  0.081  0.700  0.430-  30 2.44  23 2.47  46 2.48   9 2.50  27 2.51  42 2.51  29 2.51  25 2.55
                            10 2.57  22 2.58  13 2.63  45 2.66
  27  0.328  0.703  0.430-  24 2.42  47 2.48  31 2.48  26 2.51  43 2.52  10 2.55  23 2.56  30 2.58
                            28 2.59  14 2.62  46 2.64  11 2.72
  28  0.584  0.702  0.428-  12 2.45  25 2.49  48 2.51  24 2.53  32 2.55  21 2.56  15 2.57  44 2.57
                            27 2.59  31 2.59  11 2.71  47 2.72
  29  0.951  0.944  0.430-  30 2.40  32 2.42  13 2.42  16 2.43  25 2.44  45 2.47  35 2.51  26 2.51
                            19 2.56  18 2.58  34 2.65
  30  0.188  0.948  0.428-   3 2.36  13 2.38  29 2.40  19 2.44  26 2.44  46 2.55  27 2.58  14 2.60
                            31 2.62  36 2.62  35 2.63  20 2.67
  31  0.446  0.951  0.428-  14 2.40   4 2.41  27 2.48  15 2.51  20 2.52  17 2.55  47 2.59  28 2.59
                            33 2.60  30 2.62  36 2.68  32 2.71
  32  0.713  0.951  0.429-  16 2.35  29 2.42  34 2.46  25 2.47  18 2.48  15 2.51  48 2.54  17 2.54
                            28 2.55   1 2.60  31 2.71  33 2.72
  33  0.562  0.042  0.476-  17 2.53  47 2.54  36 2.54  40 2.54  48 2.54  52 2.54  63 2.54  37 2.54
                            49 2.54  34 2.54  31 2.60  32 2.72
  34  0.813  0.042  0.476-  32 2.46  35 2.54  45 2.54  38 2.54  48 2.54  50 2.54  64 2.54  37 2.54
                            49 2.54  33 2.54  18 2.60  29 2.65
  35  0.062  0.042  0.476-  29 2.51  19 2.52  34 2.54  45 2.54  46 2.54  61 2.54  38 2.54  50 2.54
                            39 2.54  51 2.54  36 2.54  30 2.63
  36  0.313  0.042  0.476-  20 2.45  33 2.54  47 2.54  46 2.54  62 2.54  40 2.54  39 2.54  52 2.54
                            51 2.54  35 2.54  30 2.62  31 2.68
  37  0.688  0.292  0.476-  17 2.53  38 2.54  40 2.54  41 2.54  44 2.54  53 2.54  56 2.54  33 2.54
                            34 2.54  49 2.54  21 2.54  18 2.74
  38  0.937  0.292  0.476-  22 2.40  41 2.54  42 2.54  37 2.54  53 2.54  34 2.54  54 2.54  39 2.54
                            35 2.54  50 2.54  18 2.59  19 2.69
  39  0.187  0.292  0.476-  42 2.54  43 2.54  54 2.54  55 2.54  38 2.54  35 2.54  36 2.54  51 2.54
                            40 2.54  19 2.54  23 2.56  20 2.57
  40  0.438  0.292  0.476-  20 2.40  44 2.54  37 2.54  43 2.54  56 2.54  33 2.54  55 2.54  36 2.54
                            52 2.54  39 2.54  24 2.68  17 2.71
  41  0.813  0.542  0.476-  22 2.47  25 2.51  38 2.54  42 2.54  37 2.54  45 2.54  57 2.54  48 2.54
                            53 2.54  60 2.54  44 2.54  21 2.57
  42  0.062  0.542  0.476-  22 2.40  26 2.51  41 2.54  38 2.54  39 2.54  45 2.54  57 2.54  46 2.54
                            54 2.54  58 2.54  43 2.54  23 2.65
  43  0.313  0.542  0.476-  27 2.52  44 2.54  40 2.54  39 2.54  47 2.54  46 2.54  55 2.54  59 2.54
                            58 2.54  42 2.54  23 2.54  24 2.68
  44  0.562  0.542  0.476-  40 2.54  43 2.54  37 2.54  47 2.54  59 2.54  48 2.54  56 2.54  60 2.54
                            41 2.54  28 2.57  24 2.62  21 2.72
  45  0.937  0.792  0.476-  25 2.45  29 2.47  34 2.54  48 2.54  35 2.54  41 2.54  64 2.54  46 2.54
                            42 2.54  61 2.54  57 2.54  26 2.66
  46  0.187  0.792  0.476-  26 2.48  35 2.54  36 2.54  45 2.54  42 2.54  43 2.54  58 2.54  61 2.54
                            62 2.54  47 2.54  30 2.55  27 2.64
  47  0.438  0.792  0.476-  27 2.48  33 2.54  48 2.54  44 2.54  36 2.54  63 2.54  43 2.54  59 2.54
                            62 2.54  46 2.54  31 2.59  28 2.72
  48  0.688  0.792  0.476-  28 2.51  45 2.54  47 2.54  33 2.54  34 2.54  41 2.54  44 2.54  60 2.54
                            63 2.54  64 2.54  32 2.54  25 2.63
  49  0.688  0.125  0.522-  80 2.49  52 2.54  50 2.54  56 2.54  53 2.54  64 2.54  63 2.54  37 2.54
                            33 2.54  34 2.54  65 2.58  66 2.66
  50  0.937  0.125  0.522-  66 2.53  53 2.54  54 2.54  64 2.54  49 2.54  61 2.54  34 2.54  51 2.54
                            35 2.54  38 2.54  77 2.57  67 2.60
  51  0.187  0.125  0.522-  68 2.49  54 2.54  55 2.54  61 2.54  62 2.54  50 2.54  39 2.54  35 2.54
                            36 2.54  52 2.54  78 2.55  67 2.57
  52  0.438  0.125  0.522-  79 2.43  68 2.53  56 2.54  63 2.54  49 2.54  55 2.54  62 2.54  33 2.54
                            40 2.54  36 2.54  51 2.54  65 2.63
  53  0.813  0.375  0.522-  66 2.52  50 2.54  54 2.54  49 2.54  38 2.54  57 2.54  37 2.54  60 2.54
                            41 2.54  56 2.54  70 2.54  69 2.60
  54  0.062  0.375  0.522-  71 2.48  70 2.52  53 2.54  50 2.54  51 2.54  38 2.54  39 2.54  57 2.54
                            58 2.54  42 2.54  55 2.54  67 2.57
  55  0.313  0.375  0.522-  71 2.51  56 2.54  52 2.54  51 2.54  40 2.54  39 2.54  59 2.54  58 2.54
                            43 2.54  54 2.54  68 2.54  72 2.65
  56  0.562  0.375  0.522-  52 2.54  55 2.54  49 2.54  40 2.54  59 2.54  37 2.54  60 2.54  44 2.54
                            53 2.54  65 2.62  72 2.63  69 2.64
  57  0.937  0.625  0.522-  70 2.47  74 2.53  60 2.54  53 2.54  64 2.54  41 2.54  58 2.54  54 2.54
                            61 2.54  42 2.54  45 2.54  73 2.68
  58  0.187  0.625  0.522-  71 2.43  74 2.44  57 2.54  54 2.54  55 2.54  61 2.54  62 2.54  46 2.54
                            42 2.54  43 2.54  59 2.54  75 2.64
  59  0.438  0.625  0.522-  60 2.54  56 2.54  63 2.54  44 2.54  55 2.54  62 2.54  47 2.54  43 2.54
                            58 2.54  76 2.56  72 2.57  75 2.58
  60  0.688  0.625  0.522-  57 2.54  59 2.54  53 2.54  56 2.54  63 2.54  64 2.54  48 2.54  44 2.54
                            41 2.54  76 2.54  69 2.56  73 2.57
  61  0.062  0.875  0.522-  74 2.47  64 2.54  50 2.54  51 2.54  35 2.54  57 2.54  45 2.54  58 2.54
                            46 2.54  62 2.54  77 2.56  78 2.57
  62  0.313  0.875  0.522-  75 2.53  63 2.54  52 2.54  51 2.54  36 2.54  59 2.54  58 2.54  47 2.54
                            46 2.54  61 2.54  78 2.61  79 2.62
  63  0.562  0.875  0.522-  76 2.48  52 2.54  62 2.54  59 2.54  49 2.54  47 2.54  33 2.54  60 2.54
                            48 2.54  64 2.54  80 2.58  79 2.60
  64  0.813  0.875  0.522-  77 2.52  61 2.54  50 2.54  57 2.54  49 2.54  45 2.54  34 2.54  60 2.54
                            48 2.54  63 2.54  73 2.55  80 2.57
  65  0.567  0.207  0.570-  79 2.37  80 2.43  81 2.47  88 2.49  49 2.58  69 2.59  56 2.62  68 2.62
                            66 2.62  85 2.63  72 2.63  52 2.63
  66  0.826  0.219  0.569-  67 2.43  70 2.46  82 2.48  53 2.52  50 2.53  69 2.56  77 2.57  86 2.58
                            80 2.60  65 2.62  49 2.66  85 2.69
  67  0.065  0.211  0.569-  66 2.43  78 2.47  86 2.48  68 2.48  87 2.56  71 2.56  83 2.56  54 2.57
                            51 2.57  70 2.58  50 2.60  77 2.62
  68  0.309  0.204  0.568-  79 2.36  87 2.42  78 2.46  67 2.48  51 2.49  84 2.52  52 2.53  55 2.54
                            65 2.62  71 2.63  88 2.66  72 2.67
  69  0.691  0.466  0.570-  92 2.46  89 2.48  73 2.49  70 2.52  72 2.55  66 2.56  76 2.56  60 2.56
                            65 2.59  53 2.60  85 2.61  56 2.64
  70  0.940  0.466  0.567-  66 2.46  57 2.47  71 2.48  74 2.52  54 2.52  69 2.52  53 2.54  90 2.54
                            86 2.55  89 2.57  67 2.58  73 2.63
  71  0.184  0.467  0.566-  74 2.42  58 2.43  90 2.46  70 2.48  54 2.48  55 2.51  87 2.56  67 2.56
                            72 2.59  75 2.60  68 2.63  91 2.75
  72  0.439  0.467  0.570-  91 2.48  92 2.48  75 2.52  76 2.54  69 2.55  88 2.56  59 2.57  71 2.59
                            65 2.63  56 2.63  55 2.65  68 2.67
  73  0.801  0.720  0.570-  93 2.33  76 2.41  96 2.45  77 2.46  80 2.47  69 2.49  64 2.55  89 2.57
                            60 2.57  70 2.63  57 2.68  74 2.74
  74  0.071  0.709  0.567-  71 2.42  58 2.44  93 2.45  61 2.47  78 2.51  75 2.52  70 2.52  57 2.53
                            90 2.56  77 2.57  94 2.57  73 2.74
  75  0.319  0.719  0.569-  94 2.48  76 2.49  95 2.49  74 2.52  72 2.52  62 2.53  78 2.56  59 2.58
                            71 2.60  79 2.61  58 2.64  91 2.66
  76  0.564  0.718  0.568-  73 2.41  63 2.48  75 2.49  95 2.53  92 2.53  72 2.54  80 2.54  60 2.54
                            59 2.56  69 2.56  96 2.62  79 2.64
  77  0.933  0.954  0.569-  93 2.40  73 2.46  83 2.48  80 2.49  64 2.52  78 2.54  82 2.55  61 2.56
                            74 2.57  66 2.57  50 2.57  67 2.62
  78  0.184  0.964  0.569-  83 2.44  68 2.46  67 2.47  74 2.51  77 2.54  51 2.55  75 2.56  84 2.57
                            61 2.57  79 2.61  62 2.61  94 2.62
  79  0.440  0.982  0.568-  68 2.36  65 2.37  52 2.43  84 2.49  80 2.52  81 2.58  63 2.60  78 2.61
                            75 2.61  62 2.62  76 2.64  95 2.66
  80  0.688  0.969  0.568-  65 2.43  73 2.47  77 2.49  49 2.49  96 2.51  79 2.52  76 2.54  82 2.56
                            64 2.57  63 2.58  81 2.59  66 2.60
  81  0.566  0.054  0.616-  88 2.40  65 2.47  96 2.48  84 2.51  85 2.51  82 2.54  79 2.58  80 2.59
                            95 2.60
  82  0.817  0.059  0.614-  83 2.46  85 2.47  66 2.48  96 2.51  81 2.54  77 2.55  80 2.56  86 2.62
                            93 2.74
  83  0.057  0.028  0.614-  78 2.44  82 2.46  77 2.48  93 2.49  67 2.56  94 2.57  84 2.65  86 2.67

  84  0.319  0.048  0.615-  87 2.48  88 2.49  79 2.49  81 2.51  68 2.52  95 2.56  78 2.57  83 2.65
                            94 2.69
  85  0.692  0.300  0.618-  82 2.47  89 2.47  88 2.50  81 2.51  92 2.55  69 2.61  65 2.63  66 2.69
                            86 2.70
  86  0.957  0.309  0.615-  90 2.35  67 2.48  89 2.50  87 2.55  70 2.55  66 2.58  82 2.62  83 2.67
                            85 2.70
  87  0.208  0.299  0.613-  88 2.41  68 2.42  91 2.42  84 2.48  90 2.52  86 2.55  67 2.56  71 2.56

  88  0.446  0.290  0.615-  81 2.40  87 2.41  84 2.49  65 2.49  85 2.50  91 2.51  72 2.56  92 2.63
                            68 2.66
  89  0.816  0.542  0.615-  93 2.44  85 2.47  69 2.48  86 2.50  92 2.51  73 2.57  70 2.57  90 2.61
                            96 2.68
  90  0.074  0.540  0.613-  86 2.35  94 2.41  71 2.46  87 2.52  93 2.53  70 2.54  91 2.55  74 2.56
                            89 2.61
  91  0.325  0.539  0.617-  87 2.42  72 2.48  92 2.48  94 2.51  88 2.51  95 2.54  90 2.55  75 2.66
                            71 2.75
  92  0.569  0.553  0.614-  69 2.46  95 2.47  72 2.48  91 2.48  89 2.51  76 2.53  85 2.55  96 2.60
                            88 2.63
  93  0.937  0.781  0.610-  73 2.33  77 2.40  89 2.44  74 2.45  83 2.49  96 2.52  90 2.53  94 2.58
                            82 2.74
  94  0.191  0.779  0.615-  90 2.41  75 2.48  91 2.51  95 2.57  74 2.57  83 2.57  93 2.58  78 2.62
                            84 2.69
  95  0.444  0.794  0.615-  92 2.47  75 2.49  96 2.52  76 2.53  91 2.54  84 2.56  94 2.57  81 2.60
                            79 2.66
  96  0.692  0.812  0.615-  73 2.45  81 2.48  80 2.51  82 2.51  93 2.52  95 2.52  92 2.60  76 2.62
                            89 2.68
  97  0.115  0.702  0.691- 147 0.98 148 0.99
  98  0.006  0.845  0.770- 150 0.91 149 0.98
  99  0.135  0.779  0.817- 152 0.97 230 0.98
 100  0.444  0.337  0.691- 153 0.93 154 0.98
 101  0.698  0.823  0.691- 156 0.98 155 1.01
 102  0.714  0.854  0.846- 158 0.96 171 1.02
 103  0.360  0.163  0.745- 160 0.98 175 0.99
 104  0.811  0.522  0.817- 162 0.98 157 1.01
 105  0.706  0.445  0.752- 188 0.99 163 1.00
 106  0.977  0.974  0.710- 164 0.95 165 0.95
 107  0.986  0.497  0.768- 167 0.98 161 0.98
 108  0.935  0.487  0.253- 169 0.98 170 0.99
 109  0.904  0.251  0.198- 172 0.97 159 1.00
 110  0.015  0.998  0.309- 173 0.97 174 0.98
 111  0.686  0.736  0.761- 151 0.95 176 0.98
 112  0.173  0.678  0.241- 184 0.97 177 0.99
 113  0.532  0.238  0.233- 178 0.96 179 0.99
 114  0.405  0.881  0.777- 180 1.00 181 1.01
 115  0.077  0.245  0.731- 183 0.96 182 1.00
 116  0.538  0.011  0.278- 185 0.97 166 1.01
 117  0.154  0.311  0.175- 187 0.96 186 1.05
 118  0.268  0.373  0.228- 190 0.95 189 0.95
 119  0.429  0.685  0.692- 168 0.97 191 0.99
 120  0.759  0.328  0.690- 196 0.93 192 0.96
 121  0.633  0.133  0.765- 195 0.95 193 0.99
 122  0.925  0.411  0.314- 194 0.95 197 0.97
 123  0.219  0.671  0.748- 199 0.97 198 1.00
 124  0.877  0.795  0.272- 200 0.97 203 0.97
 125  0.255  0.842  0.296- 201 0.98 222 1.02
 126  0.249  0.089  0.678- 204 0.93 202 0.97
 127  0.357  0.244  0.316- 205 0.96 206 1.03
 128  0.780  0.030  0.231- 209 0.96 207 0.99
 129  0.608  0.343  0.307- 208 0.95 210 1.01
 130  0.545  0.092  0.181- 212 0.95 213 0.97
 131  0.233  0.497  0.802- 214 0.99 218 1.01
 132  0.403  0.462  0.759- 215 1.02 217 1.02
 133  0.677  0.495  0.228- 216 0.96 219 1.00
 134  0.299  0.070  0.833- 221 0.99 220 1.04
 135  0.434  0.631  0.327- 226 0.95 236 0.96
 136  0.758  0.995  0.320- 225 0.94 223 0.96
 137  0.552  0.643  0.822- 227 0.95 224 0.98
 138  0.995  0.752  0.199- 229 1.01 228 1.03
 139  0.415  0.793  0.194- 233 1.00 231 1.00
 140  0.825  0.048  0.806- 232 0.94 234 0.98
 141  0.584  0.346  0.817- 211 0.93 235 0.98
 142  0.581  0.080  0.707- 238 0.95 237 1.01
 143  0.520  0.726  0.247- 239 0.97 240 1.00
 144  0.145  0.260  0.286- 241 0.98 242 1.02
 145  0.039  0.422  0.681- 244 0.98 243 1.01
 146  0.675  0.625  0.303- 246 1.02 245 1.04
 147  0.188  0.737  0.678-  97 0.98
 148  0.165  0.693  0.710-  97 0.99
 149  0.989  0.893  0.750-  98 0.98
 150  0.010  0.742  0.767-  98 0.91
 151  0.764  0.759  0.771- 111 0.95
 152  0.173  0.678  0.816-  99 0.97
 153  0.480  0.309  0.672- 100 0.93
 154  0.433  0.447  0.691- 100 0.98
 155  0.775  0.814  0.706- 101 1.01
 156  0.739  0.856  0.673- 101 0.98
 157  0.825  0.572  0.837- 104 1.01
 158  0.662  0.777  0.837- 102 0.96
 159  0.875  0.164  0.210- 109 1.00
 160  0.266  0.181  0.741- 103 0.98
 161  0.075  0.495  0.777- 107 0.98
 162  0.733  0.458  0.819- 104 0.98
 163  0.700  0.341  0.760- 105 1.00
 164  0.031  0.889  0.705- 106 0.95
 165  0.035  0.053  0.716- 106 0.95
 166  0.547  0.097  0.263- 116 1.01
 167  0.925  0.475  0.785- 107 0.98
 168  0.498  0.737  0.703- 119 0.97
 169  0.942  0.466  0.275- 108 0.98
 170  0.013  0.536  0.244- 108 0.99
 171  0.758  0.902  0.828- 102 1.02
 172  0.890  0.347  0.208- 109 0.97
 173  0.102  0.950  0.309- 110 0.97
 174  0.029  0.104  0.303- 110 0.98
 175  0.399  0.154  0.725- 103 0.99
 176  0.699  0.628  0.756- 111 0.98
 177  0.218  0.723  0.258- 112 0.99
 178  0.442  0.267  0.236- 113 0.96
 179  0.580  0.335  0.236- 113 0.99
 180  0.392  0.982  0.767- 114 1.00
 181  0.504  0.867  0.776- 114 1.01
 182  0.021  0.312  0.744- 115 1.00
 183  0.075  0.308  0.714- 115 0.96
 184  0.113  0.747  0.231- 112 0.97
 185  0.622  0.993  0.287- 116 0.97
 186  0.061  0.279  0.183- 117 1.05
 187  0.186  0.210  0.171- 117 0.96
 188  0.724  0.414  0.731- 105 0.99
 189  0.240  0.472  0.234- 118 0.95
 190  0.239  0.368  0.208- 118 0.95
 191  0.423  0.729  0.672- 119 0.99
 192  0.850  0.326  0.685- 120 0.96
 193  0.610  0.095  0.745- 121 0.99
 194  0.915  0.465  0.332- 122 0.95
 195  0.699  0.065  0.772- 121 0.95
 196  0.715  0.371  0.674- 120 0.93
 197  0.014  0.374  0.311- 122 0.97
 198  0.288  0.590  0.749- 123 1.00
 199  0.278  0.757  0.752- 123 0.97
 200  0.931  0.864  0.284- 124 0.97
 201  0.323  0.920  0.299- 125 0.98
 202  0.181  0.065  0.663- 126 0.97
 203  0.935  0.726  0.261- 124 0.97
 204  0.316  0.140  0.667- 126 0.93
 205  0.353  0.237  0.337- 127 0.96
 206  0.449  0.274  0.309- 127 1.03
 207  0.687  0.995  0.232- 128 0.99
 208  0.659  0.253  0.310- 129 0.95
 209  0.833  0.954  0.240- 128 0.96
 210  0.672  0.431  0.306- 129 1.01
 211  0.555  0.320  0.798- 141 0.93
 212  0.601  0.008  0.177- 130 0.95
 213  0.577  0.124  0.201- 130 0.97
 214  0.220  0.423  0.818- 131 0.99
 215  0.499  0.476  0.753- 132 1.02
 216  0.627  0.571  0.238- 133 0.96
 217  0.392  0.362  0.747- 132 1.02
 218  0.310  0.463  0.790- 131 1.01
 219  0.763  0.500  0.239- 133 1.00
 220  0.287  0.989  0.817- 134 1.04
 221  0.382  0.042  0.843- 134 0.99
 222  0.270  0.774  0.314- 125 1.02
 223  0.689  0.994  0.335- 136 0.96
 224  0.564  0.538  0.828- 137 0.98
 225  0.843  0.005  0.328- 136 0.94
 226  0.444  0.524  0.325- 135 0.95
 227  0.567  0.639  0.801- 137 0.95
 228  0.051  0.761  0.180- 138 1.03
 229  0.908  0.799  0.193- 138 1.01
 230  0.101  0.826  0.799-  99 0.98
 231  0.434  0.751  0.174- 139 1.00
 232  0.911  0.006  0.806- 140 0.94
 233  0.317  0.799  0.194- 139 1.00
 234  0.829  0.133  0.820- 140 0.98
 235  0.575  0.257  0.830- 141 0.98
 236  0.519  0.655  0.319- 135 0.96
 237  0.637  0.167  0.700- 142 1.01
 238  0.629  0.993  0.701- 142 0.95
 239  0.521  0.823  0.257- 143 0.97
 240  0.469  0.752  0.229- 143 1.00
 241  0.160  0.258  0.265- 144 0.98
 242  0.236  0.252  0.296- 144 1.02
 243  0.109  0.381  0.668- 145 1.01
 244  0.057  0.532  0.682- 145 0.98
 245  0.730  0.694  0.289- 146 1.04
 246  0.725  0.626  0.323- 146 1.02
 
  LATTYP: Found a simple orthorhombic cell.
 ALAT       =     8.7818242400
 B/A-ratio  =     1.1547005384
 C/A-ratio  =     5.1200387039
  
  Lattice vectors:
  
 A1 = (   0.0000000000,  -8.7818242400,   0.0000000000)
 A2 = (  10.1403771780,   0.0000000000,   0.0000000000)
 A3 = (   0.0000000000,   0.0000000000,  44.9632800000)


Analysis of symmetry for initial positions (statically):
=====================================================================
 Subroutine PRICEL returns:
 Original cell was already a primitive cell.
 

 Routine SETGRP: Setting up the symmetry group for a 
 simple orthorhombic supercell.


 Subroutine GETGRP returns: Found  1 space group operations
 (whereof  1 operations were pure point group operations)
 out of a pool of  8 trial point group operations.


The static configuration has the point symmetry C_1 .


Analysis of symmetry for dynamics (positions and initial velocities):
=====================================================================
 Subroutine PRICEL returns:
 Original cell was already a primitive cell.
 

 Routine SETGRP: Setting up the symmetry group for a 
 simple orthorhombic supercell.


 Subroutine GETGRP returns: Found  1 space group operations
 (whereof  1 operations were pure point group operations)
 out of a pool of  8 trial point group operations.


The dynamic configuration has the point symmetry C_1 .


 Subroutine INISYM returns: Found  1 space group operations
 (whereof  1 operations are pure point group operations),
 and found     1 'primitive' translations


----------------------------------------------------------------------------------------

                                     Primitive cell                                     

  volume of cell :    4004.0255

  direct lattice vectors                    reciprocal lattice vectors
    10.140377178  0.000000000  0.000000000     0.098615661  0.000000000  0.000000000
     0.000000000  8.781824240  0.000000000     0.000000000  0.113871557  0.000000000
     0.000000000  0.000000000 44.963280000     0.000000000  0.000000000  0.022240370

  length of vectors
    10.140377178  8.781824240 44.963280000     0.098615661  0.113871557  0.022240370

  position of ions in fractional coordinates (direct lattice)
     0.700520294  0.124116581  0.382427394
     0.954900378  0.134393489  0.379470537
     0.217565872  0.113700750  0.387513989
     0.462019303  0.111359551  0.384420798
     0.830404023  0.374187630  0.385374243
     0.075727952  0.385811639  0.384215965
     0.320811538  0.362007928  0.383229827
     0.566674188  0.371091462  0.381934325
     0.950960682  0.611538087  0.385808598
     0.207435085  0.621054333  0.382590416
     0.452748445  0.624834869  0.378295800
     0.708602833  0.610813864  0.385438295
     0.069137468  0.887092452  0.384331392
     0.333795276  0.879562126  0.382797474
     0.585131095  0.881154051  0.383392626
     0.824961424  0.863807996  0.386639943
     0.580251592  0.196428436  0.428674243
     0.827798597  0.199972119  0.427164121
     0.078214053  0.195370569  0.428829925
     0.329690892  0.203880191  0.431836823
     0.702676032  0.443976091  0.428164938
     0.943785407  0.453510557  0.433160125
     0.198979778  0.453065319  0.428716499
     0.444586027  0.462687465  0.426643697
     0.829517468  0.704014318  0.430313358
     0.081088700  0.699688337  0.429764021
     0.328245187  0.703002000  0.429735108
     0.584008849  0.701722083  0.428476303
     0.951425162  0.943645622  0.429888567
     0.188005827  0.948430505  0.428325069
     0.446298981  0.950740959  0.427675650
     0.713297925  0.950924292  0.429288077
     0.562499787  0.041666741  0.476037335
     0.812500349  0.041666741  0.476037335
     0.062499648  0.041666741  0.476037335
     0.312500210  0.041666741  0.476037335
     0.687500068  0.291667190  0.476037335
     0.937499645  0.291667190  0.476037335
     0.187499929  0.291667190  0.476037335
     0.437500492  0.291667190  0.476037335
     0.812500349  0.541666500  0.476037335
     0.062499648  0.541666500  0.476037335
     0.312500210  0.541666500  0.476037335
     0.562499787  0.541666500  0.476037335
     0.937499645  0.791666949  0.476037335
     0.187499929  0.791666949  0.476037335
     0.437500492  0.791666949  0.476037335
     0.687500068  0.791666949  0.476037335
     0.687500068  0.125000224  0.522072678
     0.937499645  0.125000224  0.522072678
     0.187499929  0.125000224  0.522072678
     0.437500492  0.125000224  0.522072678
     0.812500349  0.374999534  0.522072678
     0.062499648  0.374999534  0.522072678
     0.312500210  0.374999534  0.522072678
     0.562499787  0.374999534  0.522072678
     0.937499645  0.624999983  0.522072678
     0.187499929  0.624999983  0.522072678
     0.437500492  0.624999983  0.522072678
     0.687500068  0.624999983  0.522072678
     0.062499648  0.875000432  0.522072678
     0.312500210  0.875000432  0.522072678
     0.562499787  0.875000432  0.522072678
     0.812500349  0.875000432  0.522072678
     0.567370414  0.207056068  0.570107430
     0.825719779  0.219228938  0.568935362
     0.064927565  0.210556480  0.569304553
     0.309224198  0.203692303  0.567716590
     0.691075872  0.465701646  0.569878354
     0.939607061  0.466381459  0.567382985
     0.184456650  0.466769761  0.566491146
     0.439229224  0.467244605  0.570292025
     0.801261122  0.719503127  0.569809409
     0.071269538  0.709465349  0.566504490
     0.318849087  0.718822175  0.569284536
     0.564058900  0.717635633  0.567816672
     0.933337077  0.954147996  0.568543932
     0.183536565  0.964330391  0.569188903
     0.440070416  0.981520441  0.568312632
     0.688168682  0.968829456  0.568386025
     0.565917806  0.053977395  0.616093844
     0.816558384  0.059220042  0.614250117
     0.057361772  0.027978242  0.613778621
     0.318544364  0.047515185  0.614719389
     0.691919036  0.300080021  0.618024308
     0.957383520  0.309160139  0.614897312
     0.208404477  0.299310249  0.612684395
     0.445525834  0.289730235  0.615308759
     0.816134336  0.541984202  0.614997393
     0.073664913  0.540270435  0.612975744
     0.324730525  0.539439172  0.616883377
     0.569018282  0.552575395  0.613945424
     0.937491755  0.780763747  0.609777579
     0.190975145  0.779204845  0.614917328
     0.443684680  0.793811150  0.614779438
     0.691999901  0.811981634  0.614957361
     0.115182106  0.702062559  0.691121733
     0.005874535  0.844627471  0.769730322
     0.135053162  0.778585384  0.817393660
     0.444439089  0.336590658  0.690556828
     0.698001650  0.822611544  0.691424202
     0.714367905  0.854144856  0.846439743
     0.359986610  0.163060654  0.744834452
     0.811230180  0.521608025  0.817053382
     0.706059535  0.445215014  0.751673365
     0.977441946  0.973605229  0.709912622
     0.985673395  0.497006075  0.768246889
     0.934827160  0.487420368  0.253221740
     0.904358865  0.251305417  0.197532520
     0.015066501  0.997868980  0.309357992
     0.685947858  0.736307153  0.760616218
     0.172600089  0.677593839  0.240889899
     0.532199139  0.237825302  0.232524851
     0.405188084  0.880816991  0.777062972
     0.077074056  0.244667844  0.731436852
     0.537632862  0.010767694  0.277906994
     0.154365067  0.310542539  0.175078420
     0.267522593  0.372661751  0.228270713
     0.428690168  0.685394041  0.692204839
     0.758670991  0.328051430  0.690425610
     0.632782182  0.132654670  0.765002019
     0.924639176  0.411059240  0.313816519
     0.218630921  0.671353678  0.748392911
     0.877000909  0.795223157  0.272323994
     0.255371172  0.842198591  0.296117632
     0.249395062  0.089259359  0.677646293
     0.356841756  0.244360390  0.315883094
     0.779809258  0.030100807  0.230586603
     0.607899479  0.343032372  0.306735407
     0.545381094  0.091810082  0.181422485
     0.232979500  0.497184854  0.802096733
     0.402885408  0.461816348  0.758641274
     0.676981722  0.494596553  0.228197320
     0.298857720  0.070100469  0.833197222
     0.433538114  0.630712919  0.327259043
     0.757887982  0.994931094  0.320123443
     0.552071181  0.643435788  0.821512576
     0.994696728  0.751585299  0.199045310
     0.415256743  0.793480923  0.193819490
     0.825030455  0.047514046  0.806362436
     0.584251443  0.345597898  0.816806514
     0.580884704  0.079993630  0.706758938
     0.520394844  0.725501880  0.247211280
     0.145011371  0.260411725  0.286418162
     0.038805263  0.421784802  0.681378227
     0.675144512  0.624971515  0.303462514
     0.187730690  0.736689761  0.678455842
     0.165466232  0.693264843  0.710017152
     0.989322175  0.892630026  0.750305583
     0.009755061  0.741835617  0.766638911
     0.764091894  0.759207861  0.771189290
     0.172821974  0.677805640  0.815943588
     0.479646853  0.308791195  0.672326396
     0.432916836  0.447366047  0.690519019
     0.774547126  0.814208962  0.705829290
     0.739426144  0.856382432  0.672940230
     0.824659660  0.571657991  0.837030732
     0.662052297  0.776781659  0.836930205
     0.874536503  0.164322350  0.210212200
     0.266428946  0.181241386  0.740611005
     0.074508077  0.495245621  0.777025164
     0.732603913  0.458228255  0.819348588
     0.699923669  0.340942829  0.760315973
     0.031018570  0.888563673  0.705015292
     0.034642696  0.053278224  0.716139926
     0.547263667  0.096630265  0.263034414
     0.924657913  0.475266856  0.784686971
     0.498010075  0.736700009  0.703276096
     0.941614876  0.465721004  0.274582726
     0.012500521  0.536230272  0.243660382
     0.757527049  0.902259005  0.828340370
     0.890009301  0.346787856  0.207885857
     0.101838421  0.950130607  0.309174953
     0.029127122  0.103506968  0.303156709
     0.398588724  0.153767596  0.724722485
     0.698718586  0.627818304  0.756408340
     0.218213777  0.723195981  0.258242504
     0.442294199  0.267458097  0.236379330
     0.579709206  0.334930411  0.235610925
     0.391578137  0.981625203  0.767028117
     0.503759368  0.867274246  0.776391313
     0.020605742  0.312328045  0.743973749
     0.074812799  0.307638815  0.714018194
     0.113478027  0.747208077  0.230645540
     0.622088300  0.992838135  0.287279531
     0.060922783  0.279009228  0.183176361
     0.185858964  0.210320766  0.170673269
     0.724108174  0.414189569  0.730829690
     0.240388494  0.472158163  0.234159074
     0.239207079  0.367735668  0.208204784
     0.423394507  0.728933969  0.672028375
     0.850153781  0.325573585  0.684841053
     0.609755425  0.094996208  0.744789971
     0.914581365  0.465103820  0.331964216
     0.699477926  0.064784945  0.771711939
     0.715495082  0.370946846  0.674250188
     0.013711522  0.374163717  0.311120986
     0.287937021  0.590157564  0.748668691
     0.277920629  0.756515938  0.751866857
     0.930566964  0.864384186  0.283924571
     0.323202968  0.920021829  0.298852975
     0.181005101  0.065462481  0.663367975
     0.934527369  0.726435627  0.261451344
     0.315828489  0.140297729  0.667255592
     0.352501681  0.237158014  0.337230958
     0.449476377  0.273883869  0.308703458
     0.687425120  0.994615670  0.232030893
     0.659123412  0.253328914  0.309897765
     0.832754034  0.954038679  0.240390603
     0.671766925  0.430530138  0.305682548
     0.555378750  0.320115721  0.797873287
     0.601103873  0.008139539  0.177186139
     0.577382862  0.124057368  0.200644392
     0.220406003  0.422578487  0.818476766
     0.498857184  0.475712094  0.752803176
     0.626731125  0.570926935  0.238296672
     0.391938084  0.362453166  0.747312029
     0.310090043  0.462994919  0.789573181
     0.762719164  0.500101104  0.238952986
     0.286879861  0.988702320  0.816699760
     0.382486759  0.041834133  0.843115919
     0.269839075  0.773694601  0.314112760
     0.689184424  0.994229645  0.334875703
     0.564088485  0.537792590  0.827886667
     0.843004146  0.004567388  0.327931370
     0.443613676  0.523860405  0.325007651
     0.566996661  0.639337551  0.800562148
     0.051478361  0.760971732  0.180107412
     0.908201918  0.798627917  0.192572917
     0.101329564  0.825768064  0.799167676
     0.433995691  0.750669772  0.173587425
     0.910561791  0.006306207  0.805842012
     0.316607553  0.799399966  0.194454453
     0.828786726  0.133265022  0.820373870
     0.575238958  0.257065040  0.829870508
     0.518647375  0.654569010  0.319213812
     0.637267223  0.167312617  0.699553058
     0.628995341  0.992621779  0.700820759
     0.520840587  0.823061337  0.257489667
     0.469407589  0.751974740  0.228903452
     0.159592683  0.257917938  0.264816090
     0.235715098  0.252326845  0.296087385
     0.108772088  0.380986901  0.667538044
     0.056702033  0.531912262  0.682183328
     0.729719405  0.693565464  0.289326757
     0.725420748  0.626010024  0.323176823

  ion indices of the primitive-cell ions
   primitive index   ion index
                 1           1
                 2           2
                 3           3
                 4           4
                 5           5
                 6           6
                 7           7
                 8           8
                 9           9
                10          10
                11          11
                12          12
                13          13
                14          14
                15          15
                16          16
                17          17
                18          18
                19          19
                20          20
                21          21
                22          22
                23          23
                24          24
                25          25
                26          26
                27          27
                28          28
                29          29
                30          30
                31          31
                32          32
                33          33
                34          34
                35          35
                36          36
                37          37
                38          38
                39          39
                40          40
                41          41
                42          42
                43          43
                44          44
                45          45
                46          46
                47          47
                48          48
                49          49
                50          50
                51          51
                52          52
                53          53
                54          54
                55          55
                56          56
                57          57
                58          58
                59          59
                60          60
                61          61
                62          62
                63          63
                64          64
                65          65
                66          66
                67          67
                68          68
                69          69
                70          70
                71          71
                72          72
                73          73
                74          74
                75          75
                76          76
                77          77
                78          78
                79          79
                80          80
                81          81
                82          82
                83          83
                84          84
                85          85
                86          86
                87          87
                88          88
                89          89
                90          90
                91          91
                92          92
                93          93
                94          94
                95          95
                96          96
                97          97
                98          98
                99          99
               100         100
               101         101
               102         102
               103         103
               104         104
               105         105
               106         106
               107         107
               108         108
               109         109
               110         110
               111         111
               112         112
               113         113
               114         114
               115         115
               116         116
               117         117
               118         118
               119         119
               120         120
               121         121
               122         122
               123         123
               124         124
               125         125
               126         126
               127         127
               128         128
               129         129
               130         130
               131         131
               132         132
               133         133
               134         134
               135         135
               136         136
               137         137
               138         138
               139         139
               140         140
               141         141
               142         142
               143         143
               144         144
               145         145
               146         146
               147         147
               148         148
               149         149
               150         150
               151         151
               152         152
               153         153
               154         154
               155         155
               156         156
               157         157
               158         158
               159         159
               160         160
               161         161
               162         162
               163         163
               164         164
               165         165
               166         166
               167         167
               168         168
               169         169
               170         170
               171         171
               172         172
               173         173
               174         174
               175         175
               176         176
               177         177
               178         178
               179         179
               180         180
               181         181
               182         182
               183         183
               184         184
               185         185
               186         186
               187         187
               188         188
               189         189
               190         190
               191         191
               192         192
               193         193
               194         194
               195         195
               196         196
               197         197
               198         198
               199         199
               200         200
               201         201
               202         202
               203         203
               204         204
               205         205
               206         206
               207         207
               208         208
               209         209
               210         210
               211         211
               212         212
               213         213
               214         214
               215         215
               216         216
               217         217
               218         218
               219         219
               220         220
               221         221
               222         222
               223         223
               224         224
               225         225
               226         226
               227         227
               228         228
               229         229
               230         230
               231         231
               232         232
               233         233
               234         234
               235         235
               236         236
               237         237
               238         238
               239         239
               240         240
               241         241
               242         242
               243         243
               244         244
               245         245
               246         246

----------------------------------------------------------------------------------------

 
 
 KPOINTS: KPOINTS created by Atomic Simulation Env

Automatic generation of k-mesh.
 Grid dimensions read from file:
 generate k-points for:    2    2    1

 Generating k-lattice:

  Cartesian coordinates                     Fractional coordinates (reciprocal lattice)
     0.049307831  0.000000000  0.000000000     0.500000000  0.000000000  0.000000000
     0.000000000  0.056935779  0.000000000     0.000000000  0.500000000  0.000000000
     0.000000000  0.000000000  0.022240370     0.000000000  0.000000000  1.000000000

  Length of vectors
     0.049307831  0.056935779  0.022240370

  Shift w.r.t. Gamma in fractional coordinates (k-lattice)
     0.500000000  0.500000000  0.000000000

 
 Subroutine IBZKPT returns following result:
 ===========================================
 
 Found      2 irreducible k-points:
 
 Following reciprocal coordinates:
            Coordinates               Weight
  0.250000  0.250000  0.000000      2.000000
 -0.250000  0.250000  0.000000      2.000000
 
 Following cartesian coordinates:
            Coordinates               Weight
  0.024654  0.028468  0.000000      2.000000
 -0.024654  0.028468  0.000000      2.000000
 


--------------------------------------------------------------------------------------------------------




 Dimension of arrays:
   k-points           NKPTS =      2   k-points in BZ     NKDIM =      2   number of bands    NBANDS=    874
   number of dos      NEDOS =    301   number of ions     NIONS =    246
   non local maximal  LDIM  =      6   non local SUM 2l+1 LMDIM =     18
   total plane-waves  NPLWV = ******
   max r-space proj   IRMAX =   8792   max aug-charges    IRDMAX=  24698
   dimension x,y,z NGX =    96 NGY =   84 NGZ =  420
   dimension x,y,z NGXF=   192 NGYF=  168 NGZF=  840
   support grid    NGXF=   192 NGYF=  168 NGZF=  840
   ions per type =              96  50 100
   NGX,Y,Z   is equivalent  to a cutoff of  15.74, 15.90, 15.53 a.u.
   NGXF,Y,Z  is equivalent  to a cutoff of  31.48, 31.80, 31.06 a.u.

 SYSTEM =  unknown system                          
 POSCAR =  Cu O  H                                 

 Startparameter for this run:
   NWRITE =      2    write-flag & timer
   PREC   = accura    normal or accurate (medium, high low for compatibility)
   ISTART =      1    job   : 0-new  1-cont  2-samecut
   ICHARG =      1    charge: 1-file 2-atom 10-const
   ISPIN  =      1    spin polarized calculation?
   LNONCOLLINEAR =      F non collinear calculations
   LSORBIT =      F    spin-orbit coupling
   INIWAV =      1    electr: 0-lowe 1-rand  2-diag
   LASPH  =      T    aspherical Exc in radial PAW
 Electronic Relaxation 1
   ENCUT  =  800.0 eV  58.80 Ry    7.67 a.u.  23.39 20.25103.70*2*pi/ulx,y,z
   ENINI  =  800.0     initial cutoff
   ENAUG  = 1000.0 eV  augmentation charge cutoff
   NELM   =    300;   NELMIN=  2; NELMDL=  0     # of ELM steps 
   EDIFF  = 0.1E-06   stopping-criterion for ELM
   LREAL  =      T    real-space projection
   NLSPLINE    = F    spline interpolate recip. space projectors
   LCOMPAT=      F    compatible to vasp.4.4
   GGA_COMPAT  = T    GGA compatible to vasp.4.4-vasp.4.6
   LMAXPAW     = -100 max onsite density
   LMAXMIX     =    2 max onsite mixed and CHGCAR
   VOSKOWN=      0    Vosko Wilk Nusair interpolation
   ROPT   =   -0.00025  -0.00025  -0.00025
 Ionic relaxation
   EDIFFG = 0.1E-05   stopping-criterion for IOM
   NSW    =      0    number of steps for IOM
   NBLOCK =      1;   KBLOCK =      1    inner block; outer block 
   IBRION =     -1    ionic relax: 0-MD 1-quasi-New 2-CG
   NFREE  =      0    steps in history (QN), initial steepest desc. (CG)
   ISIF   =      2    stress and relaxation
   IWAVPR =     10    prediction:  0-non 1-charg 2-wave 3-comb
   ISYM   =      2    0-nonsym 1-usesym 2-fastsym
   LCORR  =      T    Harris-Foulkes like correction to forces

   POTIM  = 0.5000    time-step for ionic-motion
   TEIN   =    0.0    initial temperature
   TEBEG  =    0.0;   TEEND  =   0.0 temperature during run
   SMASS  =  -3.00    Nose mass-parameter (am)
   estimated Nose-frequenzy (Omega)   =  0.10E-29 period in steps = 0.13E+47 mass=  -0.235E-26a.u.
   SCALEE = 1.0000    scale energy and forces
   NPACO  =    256;   APACO  = 10.0  distance and # of slots for P.C.
   PSTRESS=    0.0 pullay stress

  Mass of Ions in am
   POMASS =  63.55 16.00  1.00
  Ionic Valenz
   ZVAL   =  11.00  6.00  1.00
  Atomic Wigner-Seitz radii
   RWIGS  =  -1.00 -1.00 -1.00
  virtual crystal weights 
   VCA    =   1.00  1.00  1.00
   NELECT =    1456.0000    total number of electrons
   NUPDOWN=      -1.0000    fix difference up-down

 DOS related values:
   EMIN   =  10.00;   EMAX   =-10.00  energy-range for DOS
   EFERMI =   0.00;   METHOD = LEGACY      
   ISMEAR =     0;   SIGMA  =   0.10  broadening in eV -4-tet -1-fermi 0-gaus

 Electronic relaxation 2 (details)
   IALGO  =     58    algorithm
   LDIAG  =      T    sub-space diagonalisation (order eigenvalues)
   LSUBROT=      F    optimize rotation matrix (better conditioning)
   TURBO    =      0    0=normal 1=particle mesh
   IRESTART =      0    0=no restart 2=restart with 2 vectors
   NREBOOT  =      0    no. of reboots
   NMIN     =      0    reboot dimension
   EREF     =   0.00    reference energy to select bands
   IMIX   =      4    mixing-type and parameters
     AMIX     =   0.40;   BMIX     =  1.00
     AMIX_MAG =   1.60;   BMIX_MAG =  1.00
     AMIN     =   0.10
     WC   =   100.;   INIMIX=   1;  MIXPRE=   1;  MAXMIX= -45

 Intra band minimization:
   WEIMIN = 0.0000     energy-eigenvalue tresh-hold
   EBREAK =  0.29E-10  absolut break condition
   DEPER  =   0.30     relativ break condition  

   TIME   =   0.40     timestep for ELM

  volume/ion in A,a.u.               =      16.28       109.84
  Fermi-wavevector in a.u.,A,eV,Ry     =   1.168503  2.208150 18.577372  1.365398
  Thomas-Fermi vector in A             =   2.304988
 
 Write flags
   LWAVE        =      T    write WAVECAR
   LDOWNSAMPLE  =      F    k-point downsampling of WAVECAR
   LCHARG       =      T    write CHGCAR
   LVTOT        =      F    write LOCPOT, total local potential
   LVHAR        =      T    write LOCPOT, Hartree potential only
   WRT_POTENTIAL=  hartree ionic  ! write potential to hdf5 file
   LELF         =      F    write electronic localiz. function (ELF)
   LORBIT       =      0    0 simple, 1 ext, 2 COOP (PROOUT), +10 PAW based schemes


 Dipole corrections
   LMONO      =      F    monopole corrections only (constant potential shift)
   LDIPOL     =      T    correct potential (dipole corrections)
   IDIPOL     =      3    1-x, 2-y, 3-z, 4-all directions 
   EPSILON    =  1.0000000 bulk dielectric constant
   LVACPOTAV  =      T  vacuum potentials using an averaging scheme for the charge density
   VACPOTFLAT =  0.1000000 required flatness to determine vacuum potential
 Exchange correlation treatment:
   METAGGA = R2SCAN    functional components
   XC_C    = 1    coefficients multiplying the functional components
   LIBXC   =     F    Libxc                    
   VOSKOWN =     0    Vosko Wilk Nusair interpolation
   LHFCALC =     F    Hartree Fock is set to
   LHFONE  =     F    Hartree Fock one center treatment
   AEXX    =    0.0000 exact exchange contribution

 Parameters of functionals:
   R2SCAN:
     No parameter
 
 Accuracy and mixing parameters for tau-dependent meta-GGA functionals:
   LMAXTAU = 6
   LMIXTAU = T
 
 Van der Waals corrections
   IVDW    =     0    specifies the selected vdW correction

 Linear response parameters
   LEPSILON=     F    determine dielectric tensor
   LRPA    =     F    only Hartree local field effects (RPA)
   LNABLA  =     F    use nabla operator in PAW spheres
   LVEL    =     F    velocity operator in full k-point grid
   CSHIFT  =0.1000    complex shift for real part using Kramers Kronig
   OMEGAMAX=  -1.0    maximum frequency
   DEG_THRESHOLD= 0.2000000E-02 threshold for treating states as degnerate
   RTIME   =   -0.100 relaxation time in fs
  (WPLASMAI=    0.000 imaginary part of plasma frequency in eV, 0.658/RTIME)
   DFIELD  = 0.0000000 0.0000000 0.0000000 field for delta impulse in time
 
  Optional k-point grid parameters
   LKPOINTS_OPT  =     F    use optional k-point grid
   KPOINTS_OPT_MODE=     1    mode for optional k-point grid
 
 Orbital magnetization related:
   ORBITALMAG=     F  switch on orbital magnetization
   LCHIMAG   =     F  perturbation theory with respect to B field
   DQ        =  0.001000  dq finite difference perturbation B field
   LLRAUG    =     F  two centre corrections for induced B field
   LBONE     =     F  B-component reconstruction in AE one-centre
   LVGVCALC  =     T  calculate vGv susceptibility
   LVGVAPPL  =     F  apply vGv susceptibility instead of pGv for G=0

 Random number generation:
   RANDOM_GENERATOR = DEFAULT
   PCG_SEED         = not used


--------------------------------------------------------------------------------------------------------


 Static calculation
 charge density and potential will be updated during run
 non-spin polarized calculation
 Conjugate gradient for all bands (Freysoldt, et al. PRB 79, 241103 (2009))
 preconditioned conjugated gradient                                        
 perform sub-space diagonalisation
    before iterative eigenvector-optimisation
 modified Broyden-mixing scheme, WC =      100.0
 initial mixing is a Kerker type mixing with AMIX =  0.4000 and BMIX =      1.0000
 Hartree-type preconditioning will be used
 using additional bands           146
 real space projection scheme for non local part
 use partial core corrections
 no Harris-corrections to forces 
 use gradient corrections 
 use of overlap-Matrix (Vanderbilt PP)
 Gauss-broadening in eV      SIGMA  =   0.10


--------------------------------------------------------------------------------------------------------


  energy-cutoff  :      800.00
  volume of cell :     4004.03
      direct lattice vectors                 reciprocal lattice vectors
    10.140377178  0.000000000  0.000000000     0.098615661  0.000000000  0.000000000
     0.000000000  8.781824240  0.000000000     0.000000000  0.113871557  0.000000000
     0.000000000  0.000000000 44.963280000     0.000000000  0.000000000  0.022240370

  length of vectors
    10.140377178  8.781824240 44.963280000     0.098615661  0.113871557  0.022240370


 
 old parameters found on file WAVECAR:
  energy-cutoff  :      800.00
  volume of cell :     4004.03
      direct lattice vectors                 reciprocal lattice vectors
    10.140377178  0.000000000  0.000000000     0.098615661  0.000000000  0.000000000
     0.000000000  8.781824240  0.000000000     0.000000000  0.113871557  0.000000000
     0.000000000  0.000000000 44.963280000     0.000000000  0.000000000  0.022240370

  length of vectors

 
 k-points in units of 2pi/SCALE and weight: KPOINTS created by Atomic Simulation Env
   0.02465392  0.02846789  0.00000000       0.500
  -0.02465392  0.02846789  0.00000000       0.500
 
 k-points in reciprocal lattice and weights: KPOINTS created by Atomic Simulation Env
   0.25000000  0.25000000  0.00000000       0.500
  -0.25000000  0.25000000  0.00000000       0.500
 
 position of ions in fractional coordinates (direct lattice) 
   0.70052029  0.12411658  0.38242739
   0.95490038  0.13439349  0.37947054
   0.21756587  0.11370075  0.38751399
   0.46201930  0.11135955  0.38442080
   0.83040402  0.37418763  0.38537424
   0.07572795  0.38581164  0.38421596
   0.32081154  0.36200793  0.38322983
   0.56667419  0.37109146  0.38193433
   0.95096068  0.61153809  0.38580860
   0.20743508  0.62105433  0.38259042
   0.45274845  0.62483487  0.37829580
   0.70860283  0.61081386  0.38543830
   0.06913747  0.88709245  0.38433139
   0.33379528  0.87956213  0.38279747
   0.58513109  0.88115405  0.38339263
   0.82496142  0.86380800  0.38663994
   0.58025159  0.19642844  0.42867424
   0.82779860  0.19997212  0.42716412
   0.07821405  0.19537057  0.42882993
   0.32969089  0.20388019  0.43183682
   0.70267603  0.44397609  0.42816494
   0.94378541  0.45351056  0.43316013
   0.19897978  0.45306532  0.42871650
   0.44458603  0.46268747  0.42664370
   0.82951747  0.70401432  0.43031336
   0.08108870  0.69968834  0.42976402
   0.32824519  0.70300200  0.42973511
   0.58400885  0.70172208  0.42847630
   0.95142516  0.94364562  0.42988857
   0.18800583  0.94843051  0.42832507
   0.44629898  0.95074096  0.42767565
   0.71329793  0.95092429  0.42928808
   0.56249979  0.04166674  0.47603734
   0.81250035  0.04166674  0.47603734
   0.06249965  0.04166674  0.47603734
   0.31250021  0.04166674  0.47603734
   0.68750007  0.29166719  0.47603734
   0.93749964  0.29166719  0.47603734
   0.18749993  0.29166719  0.47603734
   0.43750049  0.29166719  0.47603734
   0.81250035  0.54166650  0.47603734
   0.06249965  0.54166650  0.47603734
   0.31250021  0.54166650  0.47603734
   0.56249979  0.54166650  0.47603734
   0.93749964  0.79166695  0.47603734
   0.18749993  0.79166695  0.47603734
   0.43750049  0.79166695  0.47603734
   0.68750007  0.79166695  0.47603734
   0.68750007  0.12500022  0.52207268
   0.93749964  0.12500022  0.52207268
   0.18749993  0.12500022  0.52207268
   0.43750049  0.12500022  0.52207268
   0.81250035  0.37499953  0.52207268
   0.06249965  0.37499953  0.52207268
   0.31250021  0.37499953  0.52207268
   0.56249979  0.37499953  0.52207268
   0.93749964  0.62499998  0.52207268
   0.18749993  0.62499998  0.52207268
   0.43750049  0.62499998  0.52207268
   0.68750007  0.62499998  0.52207268
   0.06249965  0.87500043  0.52207268
   0.31250021  0.87500043  0.52207268
   0.56249979  0.87500043  0.52207268
   0.81250035  0.87500043  0.52207268
   0.56737041  0.20705607  0.57010743
   0.82571978  0.21922894  0.56893536
   0.06492757  0.21055648  0.56930455
   0.30922420  0.20369230  0.56771659
   0.69107587  0.46570165  0.56987835
   0.93960706  0.46638146  0.56738298
   0.18445665  0.46676976  0.56649115
   0.43922922  0.46724461  0.57029202
   0.80126112  0.71950313  0.56980941
   0.07126954  0.70946535  0.56650449
   0.31884909  0.71882217  0.56928454
   0.56405890  0.71763563  0.56781667
   0.93333708  0.95414800  0.56854393
   0.18353657  0.96433039  0.56918890
   0.44007042  0.98152044  0.56831263
   0.68816868  0.96882946  0.56838603
   0.56591781  0.05397740  0.61609384
   0.81655838  0.05922004  0.61425012
   0.05736177  0.02797824  0.61377862
   0.31854436  0.04751518  0.61471939
   0.69191904  0.30008002  0.61802431
   0.95738352  0.30916014  0.61489731
   0.20840448  0.29931025  0.61268439
   0.44552583  0.28973023  0.61530876
   0.81613434  0.54198420  0.61499739
   0.07366491  0.54027043  0.61297574
   0.32473052  0.53943917  0.61688338
   0.56901828  0.55257540  0.61394542
   0.93749176  0.78076375  0.60977758
   0.19097514  0.77920485  0.61491733
   0.44368468  0.79381115  0.61477944
   0.69199990  0.81198163  0.61495736
   0.11518211  0.70206256  0.69112173
   0.00587453  0.84462747  0.76973032
   0.13505316  0.77858538  0.81739366
   0.44443909  0.33659066  0.69055683
   0.69800165  0.82261154  0.69142420
   0.71436790  0.85414486  0.84643974
   0.35998661  0.16306065  0.74483445
   0.81123018  0.52160803  0.81705338
   0.70605954  0.44521501  0.75167337
   0.97744195  0.97360523  0.70991262
   0.98567340  0.49700608  0.76824689
   0.93482716  0.48742037  0.25322174
   0.90435887  0.25130542  0.19753252
   0.01506650  0.99786898  0.30935799
   0.68594786  0.73630715  0.76061622
   0.17260009  0.67759384  0.24088990
   0.53219914  0.23782530  0.23252485
   0.40518808  0.88081699  0.77706297
   0.07707406  0.24466784  0.73143685
   0.53763286  0.01076769  0.27790699
   0.15436507  0.31054254  0.17507842
   0.26752259  0.37266175  0.22827071
   0.42869017  0.68539404  0.69220484
   0.75867099  0.32805143  0.69042561
   0.63278218  0.13265467  0.76500202
   0.92463918  0.41105924  0.31381652
   0.21863092  0.67135368  0.74839291
   0.87700091  0.79522316  0.27232399
   0.25537117  0.84219859  0.29611763
   0.24939506  0.08925936  0.67764629
   0.35684176  0.24436039  0.31588309
   0.77980926  0.03010081  0.23058660
   0.60789948  0.34303237  0.30673541
   0.54538109  0.09181008  0.18142249
   0.23297950  0.49718485  0.80209673
   0.40288541  0.46181635  0.75864127
   0.67698172  0.49459655  0.22819732
   0.29885772  0.07010047  0.83319722
   0.43353811  0.63071292  0.32725904
   0.75788798  0.99493109  0.32012344
   0.55207118  0.64343579  0.82151258
   0.99469673  0.75158530  0.19904531
   0.41525674  0.79348092  0.19381949
   0.82503046  0.04751405  0.80636244
   0.58425144  0.34559790  0.81680651
   0.58088470  0.07999363  0.70675894
   0.52039484  0.72550188  0.24721128
   0.14501137  0.26041173  0.28641816
   0.03880526  0.42178480  0.68137823
   0.67514451  0.62497152  0.30346251
   0.18773069  0.73668976  0.67845584
   0.16546623  0.69326484  0.71001715
   0.98932217  0.89263003  0.75030558
   0.00975506  0.74183562  0.76663891
   0.76409189  0.75920786  0.77118929
   0.17282197  0.67780564  0.81594359
   0.47964685  0.30879119  0.67232640
   0.43291684  0.44736605  0.69051902
   0.77454713  0.81420896  0.70582929
   0.73942614  0.85638243  0.67294023
   0.82465966  0.57165799  0.83703073
   0.66205230  0.77678166  0.83693021
   0.87453650  0.16432235  0.21021220
   0.26642895  0.18124139  0.74061101
   0.07450808  0.49524562  0.77702516
   0.73260391  0.45822826  0.81934859
   0.69992367  0.34094283  0.76031597
   0.03101857  0.88856367  0.70501529
   0.03464270  0.05327822  0.71613993
   0.54726367  0.09663026  0.26303441
   0.92465791  0.47526686  0.78468697
   0.49801008  0.73670001  0.70327610
   0.94161488  0.46572100  0.27458273
   0.01250052  0.53623027  0.24366038
   0.75752705  0.90225900  0.82834037
   0.89000930  0.34678786  0.20788586
   0.10183842  0.95013061  0.30917495
   0.02912712  0.10350697  0.30315671
   0.39858872  0.15376760  0.72472248
   0.69871859  0.62781830  0.75640834
   0.21821378  0.72319598  0.25824250
   0.44229420  0.26745810  0.23637933
   0.57970921  0.33493041  0.23561093
   0.39157814  0.98162520  0.76702812
   0.50375937  0.86727425  0.77639131
   0.02060574  0.31232805  0.74397375
   0.07481280  0.30763881  0.71401819
   0.11347803  0.74720808  0.23064554
   0.62208830  0.99283813  0.28727953
   0.06092278  0.27900923  0.18317636
   0.18585896  0.21032077  0.17067327
   0.72410817  0.41418957  0.73082969
   0.24038849  0.47215816  0.23415907
   0.23920708  0.36773567  0.20820478
   0.42339451  0.72893397  0.67202838
   0.85015378  0.32557358  0.68484105
   0.60975543  0.09499621  0.74478997
   0.91458136  0.46510382  0.33196422
   0.69947793  0.06478494  0.77171194
   0.71549508  0.37094685  0.67425019
   0.01371152  0.37416372  0.31112099
   0.28793702  0.59015756  0.74866869
   0.27792063  0.75651594  0.75186686
   0.93056696  0.86438419  0.28392457
   0.32320297  0.92002183  0.29885298
   0.18100510  0.06546248  0.66336797
   0.93452737  0.72643563  0.26145134
   0.31582849  0.14029773  0.66725559
   0.35250168  0.23715801  0.33723096
   0.44947638  0.27388387  0.30870346
   0.68742512  0.99461567  0.23203089
   0.65912341  0.25332891  0.30989777
   0.83275403  0.95403868  0.24039060
   0.67176693  0.43053014  0.30568255
   0.55537875  0.32011572  0.79787329
   0.60110387  0.00813954  0.17718614
   0.57738286  0.12405737  0.20064439
   0.22040600  0.42257849  0.81847677
   0.49885718  0.47571209  0.75280318
   0.62673113  0.57092694  0.23829667
   0.39193808  0.36245317  0.74731203
   0.31009004  0.46299492  0.78957318
   0.76271916  0.50010110  0.23895299
   0.28687986  0.98870232  0.81669976
   0.38248676  0.04183413  0.84311592
   0.26983908  0.77369460  0.31411276
   0.68918442  0.99422965  0.33487570
   0.56408849  0.53779259  0.82788667
   0.84300415  0.00456739  0.32793137
   0.44361368  0.52386040  0.32500765
   0.56699666  0.63933755  0.80056215
   0.05147836  0.76097173  0.18010741
   0.90820192  0.79862792  0.19257292
   0.10132956  0.82576806  0.79916768
   0.43399569  0.75066977  0.17358743
   0.91056179  0.00630621  0.80584201
   0.31660755  0.79939997  0.19445445
   0.82878673  0.13326502  0.82037387
   0.57523896  0.25706504  0.82987051
   0.51864737  0.65456901  0.31921381
   0.63726722  0.16731262  0.69955306
   0.62899534  0.99262178  0.70082076
   0.52084059  0.82306134  0.25748967
   0.46940759  0.75197474  0.22890345
   0.15959268  0.25791794  0.26481609
   0.23571510  0.25232684  0.29608739
   0.10877209  0.38098690  0.66753804
   0.05670203  0.53191226  0.68218333
   0.72971940  0.69356546  0.28932676
   0.72542075  0.62601002  0.32317682
 
 position of ions in cartesian coordinates  (Angst):
   7.10354000  1.08997000 17.19519000
   9.68305000  1.18022000 17.06224000
   2.20620000  0.99850000 17.42390000
   4.68505000  0.97794000 17.28482000
   8.42061000  3.28605000 17.32769000
   0.76791000  3.38813000 17.27561000
   3.25315000  3.17909000 17.23127000
   5.74629000  3.25886000 17.17302000
   9.64310000  5.37042000 17.34722000
   2.10347000  5.45399000 17.20252000
   4.59104000  5.48719000 17.00942000
   7.18550000  5.36406000 17.33057000
   0.70108000  7.79029000 17.28080000
   3.38481000  7.72416000 17.21183000
   5.93345000  7.73814000 17.23859000
[...]
      3.16887      0.36591     21.40420         0.026724     -0.225244     -0.103662
      6.97151      2.56137     21.40420         0.094426     -0.072709     -0.196602
      9.50660      2.56137     21.40420         0.045453     -0.345338      0.064609
      1.90132      2.56137     21.40420         0.011464      0.006931     -0.119859
      4.43642      2.56137     21.40420         0.284439      0.203819     -0.028576
      8.23906      4.75682     21.40420        -0.173765     -0.020673      0.089898
      0.63377      4.75682     21.40420         0.246972      0.027833      0.185172
      3.16887      4.75682     21.40420         0.085730     -0.080064     -0.171842
      5.70396      4.75682     21.40420         0.037916     -0.075797     -0.310970
      9.50660      6.95228     21.40420         0.150793     -0.038188      0.174202
      1.90132      6.95228     21.40420         0.161867      0.004367     -0.058906
      4.43642      6.95228     21.40420         0.149638     -0.001378     -0.151787
      6.97151      6.95228     21.40420         0.027452     -0.023516     -0.068368
      6.97151      1.09773     23.47410         0.035428      0.139787      0.137454
      9.50660      1.09773     23.47410         0.052163     -0.015545      0.131942
      1.90132      1.09773     23.47410        -0.077685      0.002639     -0.021757
      4.43642      1.09773     23.47410         0.080050      0.199968     -0.136775
      8.23906      3.29318     23.47410        -0.085140      0.071236      0.091473
      0.63377      3.29318     23.47410        -0.056296     -0.072912     -0.056244
      3.16887      3.29318     23.47410         0.105211      0.040982      0.119226
      5.70396      3.29318     23.47410         0.015495      0.033650      0.337685
      9.50660      5.48864     23.47410        -0.122673      0.153590     -0.020929
      1.90132      5.48864     23.47410         0.223633      0.136755     -0.258856
      4.43642      5.48864     23.47410        -0.034940     -0.014387      0.160406
      6.97151      5.48864     23.47410         0.007850     -0.022426      0.101501
      0.63377      7.68410     23.47410        -0.004858      0.136556     -0.039432
      3.16887      7.68410     23.47410        -0.014748      0.073409      0.190151
      5.70396      7.68410     23.47410        -0.012643      0.109857      0.037522
      8.23906      7.68410     23.47410        -0.042621      0.012154      0.030368
      5.75335      1.81833     25.63390         0.222693      0.960417     -0.298311
      8.37311      1.92523     25.58120        -0.641843     -0.161164      0.113880
      0.65839      1.84907     25.59780         0.031583      0.026566     -0.058944
      3.13565      1.78879     25.52640         0.282309      0.809117     -0.042039
      7.00777      4.08971     25.62360        -0.141276     -0.337447     -0.281644
      9.52797      4.09568     25.51140        -0.130724      0.130997      0.309354
      1.87046      4.09909     25.47130         0.646198     -0.428425      0.435540
      4.45395      4.10326     25.64220        -0.082399     -0.397468     -0.385785
      8.12509      6.31855     25.62050         0.340191     -0.624923     -0.723445
      0.72270      6.23040     25.47190        -0.374139      0.256013      0.322231
      3.23325      6.31257     25.59690        -0.082223     -0.116894     -0.072582
      5.71977      6.30215     25.53090        -0.266146      0.011893      0.184603
      9.46439      8.37916     25.56360         0.193621      0.473754     -0.337102
      1.86113      8.46858     25.59260         0.278202     -0.388036     -0.053280
      4.46248      8.61954     25.55320        -0.038590     -1.371851      0.212577
      6.97829      8.50809     25.55650         0.031062     -0.041744      0.086193
      5.73862      0.47402     27.70160         0.140249     -0.440679     -0.033103
      8.28021      0.52006     27.61870        -0.009039     -0.227905     -0.054628
      0.58167      0.24570     27.59750         0.340128      0.433637     -0.038701
      3.23016      0.41727     27.63980        -0.255841     -0.471355     -0.150545
      7.01632      2.63525     27.78840         0.111219     -0.001360     -0.578283
      9.70823      2.71499     27.64780        -0.514258     -0.762696     -0.059633
      2.11330      2.62849     27.54830        -0.716435     -0.172342      0.033914
      4.51780      2.54436     27.66630         0.131375      0.428582     -0.236483
      8.27591      4.75961     27.65230         0.049115      0.117073     -0.144199
      0.74699      4.74456     27.56140        -0.001718      0.275518      0.043973
      3.29289      4.73726     27.73710        -0.189187      0.308750     -0.300100
      5.77006      4.85262     27.60500         0.125930     -0.123887      0.196700
      9.50652      6.85653     27.41760         0.421062      0.245553      0.954848
      1.93656      6.84284     27.64870         0.129050      0.575179     -0.232436
      4.49913      6.97111     27.64250        -0.114918      0.321763     -0.195539
      7.01714      7.13068     27.65050        -0.125071     -0.368575     -0.092220
      1.16799      6.16539     31.07510         1.014810      0.684580     -0.317840
      0.05957      7.41737     34.60960        -0.973829      3.763764     -0.260412
      1.36949      6.83740     36.75270        -0.279118      1.100662      1.206234
      4.50678      2.95588     31.04970        -1.014940      1.127985      1.965716
      7.07800      7.22403     31.08870         1.883292     -0.211070      0.643479
      7.24396      7.50095     38.05871         1.216706      1.039243     -1.341248
      3.65040      1.43197     33.49020        -0.293327      0.222392     -1.196747
      8.22618      4.58067     36.73740         0.383294      0.361613      1.736447
      7.15971      3.90980     33.79770        -0.237530     -1.955402     -1.098642
      9.91163      8.55003     31.92000        -1.338526     -0.408769     -0.083476
      9.99510      4.36462     34.54290         0.188205     -0.391844      0.140672
      9.47950      4.28044     11.38568         0.080810      0.399707     -0.834312
      9.17054      2.20692      8.88171         0.269942     -0.519273      0.174829
      0.15278      8.76311     13.90975        -0.234450      0.115590      0.324435
      6.95577      6.46612     34.19980        -0.713684      0.014185     -0.610482
      1.75023      5.95051     10.83120         0.404892     -0.074641      0.669152
      5.39670      2.08854     10.45508         0.198995      0.027999      1.205610
      4.10876      7.73518     34.93930         1.342071      0.903044     -0.896322
      0.78156      2.14863     32.88780        -0.659902      0.503017      0.975267
      5.45180      0.09456     12.49561        -0.135064      0.497143     -0.650606
      1.56532      2.72713      7.87210        -2.366767     -0.757600      0.815116
      2.71278      3.27265     10.26380         0.537013     -0.441456      1.553702
      4.34708      6.01901     31.12380        -0.390359     -0.170044     -0.634389
      7.69321      2.88089     31.04380         0.440480     -0.924705      1.636115
      6.41665      1.16495     34.39700        -0.556860      0.364601     -0.915336
      9.37619      3.60985     14.11022        -0.529036     -0.497544     -1.064240
      2.21700      5.89571     33.65020         0.971180     -0.380169     -0.991817
      8.89312      6.98351     12.24458        -0.390309     -0.241792     -0.572997
      2.58956      7.39604     13.31442         0.253395     -0.713973      2.116077
      2.52896      0.78386     30.46920        -1.444869     -1.085475      0.981385
      3.61851      2.14593     14.20314         1.567063      0.366234     -0.989022
      7.90756      0.26434     10.36793        -0.901639     -0.287776     -0.203235
      6.16433      3.01245     13.79183         0.421088      0.744192      0.300416
      5.53037      0.80626      8.15735        -0.038407      0.146735     -0.087823
      2.36250      4.36619     36.06490         0.237485     -1.568569      0.587458
      4.08541      4.05559     34.11100         2.475489     -1.312813     -1.955961
      6.86485      4.34346     10.26050         1.502010     -0.522998      0.567429
      3.03053      0.61561     37.46328         0.690967     -1.609388     -1.425299
      4.39624      5.53881     14.71464        -0.566348      0.186699      1.134556
      7.68527      8.73731     14.39380        -2.205126     -0.036462     -1.543639
      5.59821      5.65054     36.93790        -0.320466     -0.204941      0.717530
     10.08660      6.60029      8.94973        -0.216031      1.167382     -2.897223
      4.21086      6.96821      8.71476        -1.742715     -0.608772     -1.718507
      8.36612      0.41726     36.25670        -1.003134      1.321669      0.436096
      5.92453      3.03498     36.72630         0.834218     -0.258410      2.732495
      5.89039      0.70249     31.77820         0.154739      2.567422     -0.414686
      5.27700      6.37123     11.11543        -0.788362      0.711749     -0.574086
      1.47047      2.28689     12.87830         0.419593     -0.174967     -0.140340
      0.39350      3.70404     30.63700         0.913117     -1.170904     -1.586394
      6.84622      5.48839     13.64467         2.139379      1.338877      0.948208
      1.90366      6.46948     30.50560        -0.601437     -0.133459      0.046187
      1.67789      6.08813     31.92470        -0.270291     -0.375543      0.783432
     10.03210      7.83892     33.73620         0.133870     -0.244133      0.529553
      0.09892      6.51467     34.47060         0.188570     -3.382709     -0.616448
      7.74818      6.66723     34.67520         0.895863      0.408770      0.661112
      1.75248      5.95237     36.68750         0.110481      0.124846     -1.034196
      4.86380      2.71175     30.23000         0.900843     -0.348766     -1.899210
      4.38994      3.92869     31.04800         0.119210     -0.264648     -0.155881
      7.85420      7.15024     31.73640        -1.494966      0.201421     -1.080350
      7.49806      7.52060     30.25760        -0.091688     -0.213381      0.414645
      8.36236      5.02020     37.63565        -0.240291     -0.708484     -1.857432
      6.71346      6.82156     37.63113        -0.744849     -0.647869     -0.010204
      8.86813      1.44305      9.45183        -0.038390      1.324223     -0.463964
      2.70169      1.59163     33.30030         0.084447     -0.091079      0.149985
      0.75554      4.34916     34.93760        -0.358731      0.113167      0.071842
      7.42888      4.02408     36.84060         0.422609      0.206899     -0.067691
      7.09749      2.99410     34.18630        -0.092464      0.582123      0.066941
      0.31454      7.80321     31.69980         0.668893     -0.801554     -0.460232
      0.35129      0.46788     32.20000         0.511419      1.122442      0.442635
      5.54946      0.84859     11.82689         0.036544     -0.614107      0.711069
      9.37638      4.17371     35.28210         0.348168      0.396144     -0.204399
      5.05001      6.46957     31.62160        -0.112792      0.055554     -0.564280
      9.54833      4.08988     12.34614         0.482714      0.389001     -0.634451
      0.12676      4.70908     10.95577        -0.532826     -0.767459      1.290510
      7.68161      7.92348     37.24490        -0.696640     -0.444306      1.716362
      9.02503      3.04543      9.34723        -0.212071     -0.653333      0.173367
      1.03268      8.34388     13.90152         0.112554      0.140305     -0.217768
      0.29536      0.90898     13.63092         0.440571     -0.262186     -0.254990
      4.04184      1.35036     32.58590        -0.170046     -0.127236      0.797637
      7.08527      5.51339     34.01060        -0.122861      0.102165      0.157575
      2.21277      6.35098     11.61143        -0.688253      0.068733     -0.885920
      4.48503      2.34877     10.62839        -0.548458      0.073615     -0.427982
      5.87847      2.94130     10.59384         0.418941     -0.238916     -0.404102
      3.97075      8.62046     34.48810         0.320780     -0.975608      0.573407
      5.10831      7.61625     34.90910        -1.759292      0.159041      0.043859
      0.20895      2.74281     33.45150         0.660055     -0.625229      0.201469
      0.75863      2.70163     32.10460         0.325931      0.209215     -0.875695
      1.15071      6.56185     10.37058         0.273943      0.138936      0.290962
      6.30821      8.71893     12.91703         0.139994      0.305163     -0.220588
      0.61778      2.45021      8.23621         1.618372      0.917636     -0.599232
      1.88468      1.84700      7.67403         0.608870     -0.130895     -0.272222
      7.34273      3.63734     32.86050        -0.055552      0.601533      0.651199
      2.43763      4.14641     10.52856         0.000818      0.719534      0.332894
      2.42565      3.22939      9.36157        -0.484953     -0.535090     -1.562591
      4.29338      6.40137     30.21660         0.514735     -0.114824      1.060589
      8.62088      2.85913     30.79270         0.579493      0.097756      0.047524
      6.18315      0.83424     33.48820         0.056008      0.445410      0.546300
      9.27420      4.08446     14.92620         0.428765      0.345707      0.742488
      7.09297      0.56893     34.69870         0.701365     -0.280285      0.587583
      7.25539      3.25759     30.31650        -0.976763      1.046571     -1.542859
      0.13904      3.28584     13.98902         0.412617     -0.079133      0.165100
      2.91979      5.18266     33.66260        -0.847727      0.379121      0.014228
      2.81822      6.64359     33.80640        -0.191239      0.359372      0.459899
      9.43630      7.59087     12.76618         0.244283      0.272115      0.304619
      3.27740      8.07947     13.43741        -0.094452     -0.260703     -0.362759
      1.83546      0.57488     29.82720         0.075492      0.074743      0.047388
      9.47646      6.37943     11.75571        -0.242365      0.002692      0.371694
      3.20262      1.23207     30.00200         1.205834      0.959130     -0.761002
      3.57450      2.08268     15.16301         0.354608     -0.022306      0.229021
      4.55786      2.40520     13.88032        -1.404553     -0.362370      0.949814
      6.97075      8.73454     10.43287         1.225150      0.300986     -0.017697
      6.68376      2.22469     13.93402         0.454440     -0.478481     -0.011428
      8.44444      8.37820     10.80875        -0.206600     -0.360468      0.400102
      6.81197      3.78084     13.74449        -1.062929     -0.819066     -0.425227
      5.63175      2.81120     35.87500        -0.806119     -0.983043     -1.838343
      6.09542      0.07148      7.96687         0.351290     -0.664147     -0.458224
      5.85488      1.08945      9.02163        -0.455194      0.652288      0.019856
      2.23500      3.71101     36.80140         0.478860      0.734193     -1.166879
      5.05860      4.17762     33.84850        -1.354626      0.339938      0.832606
      6.35529      5.01378     10.71460        -0.701778      0.875319      0.128036
      3.97440      3.18300     33.60160        -0.477579      0.535445      1.122530
      3.14443      4.06594     35.50180        -0.989810      0.482465      1.044556
      7.73426      4.39180     10.74411        -0.696228     -0.280296     -0.615128
      2.90907      8.68261     36.72150         0.561153      1.541180      2.165086
      3.87856      0.36738     37.90926        -1.179335     -0.019128     -0.698556
      2.73627      6.79445     14.12354        -0.037093      1.022787     -1.869716
      6.98859      8.73115     15.05711         0.297806     -0.023795      0.523681
      5.72007      4.72280     37.22450        -0.425958      0.669311     -0.307217
      8.54838      0.04011     14.74487         1.573906      0.044429      0.820818
      4.49841      4.60045     14.61341        -0.658408     -1.375472     -0.151632
      5.74956      5.61455     35.99590         0.140691      0.132811     -0.457664
      0.52201      6.68272      8.09822        -1.611867     -0.323652      2.208501
      9.20951      7.01341      8.65871         1.729096     -0.804611      0.699526
      1.02752      7.25175     35.93320         0.550067     -1.029628      0.123016
      4.40088      6.59225      7.80506        -0.274378      0.579740      1.688294
      9.23344      0.05538     36.23330         1.387002     -0.555175     -0.154459
      3.21052      7.02019      8.74331         1.793746     -0.130432     -0.006110
      8.40421      1.17031     36.88670         0.015825     -0.746497     -0.610635
      5.83314      2.25750     37.31370        -0.119527      0.484878     -0.809083
      5.25928      5.74831     14.35290         1.091145      1.027289     -0.773148
      6.46213      1.46931     31.45420        -0.863845     -1.164145      0.698341
      6.37825      8.71703     31.51120         0.600485     -1.360201     -0.256623
      5.28152      7.22798     11.57758         0.133034     -0.075122      0.288643
      4.75997      6.60371     10.29225         0.753284     -0.645514      0.549556
      1.61833      2.26499     11.90700        -0.053637      0.300094      0.605633
      2.39024      2.21589     13.31306        -1.120960      0.152620     -0.505898
      1.10299      3.34576     30.01470        -1.209561      0.619914      1.168419
      0.57498      4.67116     30.67320         0.208689      0.189705      0.291275
      7.39963      6.09077     13.00908        -0.658703     -1.086522      1.331541
      7.35604      5.49751     14.53109        -0.814343      0.387481     -2.001276
 -----------------------------------------------------------------------------------
    total drift:                               -0.000007     -0.002109      0.051982


--------------------------------------------------------------------------------------------------------



  FREE ENERGIE OF THE ION-ELECTRON SYSTEM (eV)
  ---------------------------------------------------
  free  energy   TOTEN  =     -1807.06444571 eV

  energy  without entropy=    -1806.81488840  energy(sigma->0) =    -1806.93966705
 


--------------------------------------------------------------------------------------------------------


    POTLOK:  cpu time     12.2091: real time     12.2276


--------------------------------------------------------------------------------------------------------


 writing wavefunctions
     LOOP+:  cpu time   2247.0431: real time   2251.6101
 vacuum level on the upper side and lower side of the slab         6.243         4.933
    4ORBIT:  cpu time      0.0000: real time      0.0000

 total amount of memory used by VASP MPI-rank0 10653904. kBytes
=======================================================================

   base      :      30000. kBytes
   nonlr-proj:     190176. kBytes
   fftplans  :     468582. kBytes
   grid      :    1221211. kBytes
   one-center:       3825. kBytes
   wavefun   :    8740110. kBytes
 
  
  
 General timing and accounting informations for this job:
 ========================================================
  
                  Total CPU time used (sec):     2361.179
                            User time (sec):     2295.088
                          System time (sec):       66.091
                         Elapsed time (sec):     2366.219
  
                   Maximum memory used (kb):    11853216.
                   Average memory used (kb):          N/A
  
                          Minor page faults:     15543953
                          Major page faults:           45
                 Voluntary context switches:        46244
