246
Lattice="10.140377178 0.0 0.0 0.0 8.78182424 0.0 0.0 0.0 30.131127158" Properties=species:S:1:pos:R:3:initial_charges:R:1:forces:R:3 NELECT0=1456.0 NELECT=1458.7677944930276 U_vs_SHE=-1.2538405655747296 stress="0.013658019793768798 0.0016415418661438004 -0.0016661022045541508 0.0016415418661438004 0.0037691724630113887 -0.001585973710396062 -0.0016661022045541508 -0.001585973710396062 0.007068440428462406" free_energy=-1804.09513506 energy=-1811.8972818781608 pbc="T T T"
Cu       7.10354000       1.08997000       9.82159000      -0.05007400       0.49574300       0.16591600       0.18056100
Cu       9.68305000       1.18022000       9.68864000      -0.00939900       0.06011300      -0.22904700       0.69341600
Cu       2.20620000       0.99850000      10.05030000      -0.08924900      -0.57673200       0.60556000      -0.77674000
Cu       4.68505000       0.97794000       9.91122000      -0.07863300      -0.45492400       0.87053800      -0.28681200
Cu       8.42061000       3.28605000       9.95409000      -0.08220200      -0.11475900      -0.31980400      -0.49734500
Cu       0.76791000       3.38813000       9.90201000      -0.07167900       0.11791700      -0.81880300       0.08705900
Cu       3.25315000       3.17909000       9.85767000      -0.08803700       0.18571800       0.21490600       0.23981800
Cu       5.74629000       3.25886000       9.79942000      -0.01962700       0.43437800      -0.11574700       0.27782700
Cu       9.64310000       5.37042000       9.97362000      -0.09601300       0.20353300       0.82578000      -0.16502400
Cu       2.10347000       5.45399000       9.82892000      -0.05579700      -0.24264800       0.34328600       0.35126200
Cu       4.59104000       5.48719000       9.63582000       0.11978700       0.10614600       0.13112900       0.36999300
Cu       7.18550000       5.36406000       9.95697000      -0.12377700      -0.38369100       0.43417200      -0.39248600
Cu       0.70108000       7.79029000       9.90720000      -0.04843900       0.27789100      -0.73496900      -0.36499800
Cu       3.38481000       7.72416000       9.83823000      -0.06704200      -0.34961300      -0.79781300       0.05003100
Cu       5.93345000       7.73814000       9.86499000      -0.07557800      -0.16341700      -0.79229700       0.17253000
Cu       8.36542000       7.58581000      10.01100000      -0.05792900       0.31851400       0.15844700      -0.81397300
Cu       5.88397000       1.72500000      11.90100000       0.00457500      -0.22076500       0.29430700       0.28728000
Cu       8.39419000       1.75612000      11.83310000       0.02243700       0.21948600      -0.19912700       0.47234300
Cu       0.79312000       1.71571000      11.90800000       0.01156600      -0.41286100       0.51286300       0.01971800
Cu       3.34319000       1.79044000      12.04320000       0.00484100      -0.06751900       0.06659000      -0.38935000
Cu       7.12540000       3.89892000      11.87810000       0.00713300      -0.63481600       0.20107200       0.60104000
Cu       9.57034000       3.98265000      12.10270000       0.00090900       0.44600400      -0.15560800      -0.79570400
Cu       2.01773000       3.97874000      11.90290000       0.01063500      -0.05482500      -0.08274100       0.28418900
Cu       4.50827000       4.06324000      11.80970000       0.01592800       0.43515900      -0.28380900       0.28136300
Cu       8.41162000       6.18253000      11.97470000       0.00433900      -0.18649500      -0.45134000       0.26301100
Cu       0.82227000       6.14454000      11.95000000       0.00568300      -0.28000900      -0.08989200      -0.16010400
Cu       3.32853000       6.17364000      11.94870000       0.01130500      -0.06542200       0.17429000      -0.39098100
Cu       5.92207000       6.16240000      11.89210000       0.00934500      -0.57814800       0.08732200      -0.01645500
Cu       9.64781000       8.28693000      11.95560000      -0.00169700      -0.03614500       0.66235200       0.10166200
Cu       1.90645000       8.32895000      11.88530000       0.01220700       1.00441300      -0.13668700       0.81436800
Cu       4.52564000       8.34924000      11.85610000       0.00417900       0.23885100      -0.09915200       0.81488400
Cu       7.23311000       8.35085000      11.92860000       0.01294700      -1.05969300       0.24274300       0.39335800
Cu       5.70396000       0.36591000      14.03060000       0.01477800       0.04264900      -0.08763100      -0.26920700
Cu       8.23906000       0.36591000      14.03060000      -0.01230500       0.13712900       0.08191400      -0.06577400
Cu       0.63377000       0.36591000      14.03060000      -0.03764000       0.05101000      -0.02615900      -0.03094900
Cu       3.16887000       0.36591000      14.03060000      -0.00429000       0.02254000      -0.22312900      -0.09103700
Cu       6.97151000       2.56137000      14.03060000      -0.01270000       0.09876100      -0.07305900      -0.17798700
Cu       9.50660000       2.56137000      14.03060000      -0.03430000       0.04711700      -0.33046700       0.08425200
Cu       1.90132000       2.56137000      14.03060000       0.01542300       0.00761000       0.00659100      -0.10082900
Cu       4.43642000       2.56137000      14.03060000      -0.01393400       0.28590300       0.20395400      -0.02993800
Cu       8.23906000       4.75682000      14.03060000      -0.03314000      -0.16874100      -0.01814400       0.10543100
Cu       0.63377000       4.75682000      14.03060000      -0.01033600       0.24564000       0.03956400       0.20573400
Cu       3.16887000       4.75682000      14.03060000      -0.00913500       0.08224200      -0.06940300      -0.15759200
Cu       5.70396000       4.75682000      14.03060000       0.01608200       0.03865800      -0.06513300      -0.30906600
Cu       9.50660000       6.95228000      14.03060000      -0.00425800       0.15464500      -0.03765400       0.20012700
Cu       1.90132000       6.95228000      14.03060000      -0.01102700       0.16083700       0.00686300      -0.04163700
Cu       4.43642000       6.95228000      14.03060000      -0.01438700       0.15159200       0.00137800      -0.13812100
Cu       6.97151000       6.95228000      14.03060000      -0.01134200       0.02428500      -0.02029100      -0.05367400
Cu       6.97151000       1.09773000      16.10050000       0.02042800       0.03309700       0.13027900       0.11695100
Cu       9.50660000       1.09773000      16.10050000      -0.01011700       0.04898200      -0.01893600       0.11887300
Cu       1.90132000       1.09773000      16.10050000      -0.00679400      -0.07862100      -0.01098500      -0.02531400
Cu       4.43642000       1.09773000      16.10050000      -0.02956100       0.08247700       0.18890700      -0.14449000
Cu       8.23906000       3.29318000      16.10050000      -0.03563400      -0.08709200       0.06072600       0.08806900
Cu       0.63377000       3.29318000      16.10050000       0.00171500      -0.05647700      -0.07722600      -0.06381300
Cu       3.16887000       3.29318000      16.10050000      -0.01482000       0.11377200       0.03976900       0.11145700
Cu       5.70396000       3.29318000      16.10050000       0.01382400       0.00665900       0.03118900       0.32637600
Cu       9.50660000       5.48864000      16.10050000       0.02077200      -0.11977400       0.15255000      -0.02420100
Cu       1.90132000       5.48864000      16.10050000      -0.03439500       0.21635400       0.13573600      -0.27291900
Cu       4.43642000       5.48864000      16.10050000      -0.01048100      -0.03424100      -0.01656000       0.14085500
Cu       6.97151000       5.48864000      16.10050000      -0.01184700       0.00596200      -0.02661000       0.09503000
Cu       0.63377000       7.68410000      16.10050000      -0.01394300      -0.00671600       0.12648400      -0.04860000
Cu       3.16887000       7.68410000      16.10050000       0.02106300      -0.01677300       0.07171100       0.17777500
Cu       5.70396000       7.68410000      16.10050000      -0.03064000      -0.01668800       0.10271100       0.01857100
Cu       8.23906000       7.68410000      16.10050000      -0.00895100      -0.03800000       0.00872400       0.02353200
Cu       5.75335000       1.81833000      18.26030000       0.01181100       0.22545200       0.97149300      -0.32806200
Cu       8.37311000       1.92523000      18.20760000       0.01118400      -0.65061100      -0.15672400       0.10120700
Cu       0.65839000       1.84907000      18.22420000       0.01742900       0.03219500       0.03668700      -0.06228300
Cu       3.13565000       1.78879000      18.15280000      -0.00618600       0.28901100       0.82366300      -0.05269500
Cu       7.00777000       4.08971000      18.25000000       0.00213900      -0.14618300      -0.32835000      -0.30337900
Cu       9.52797000       4.09568000      18.13780000       0.02302700      -0.13206700       0.13779500       0.30185100
Cu       1.87046000       4.09909000      18.09770000       0.00303000       0.65719100      -0.41243200       0.42938100
Cu       4.45395000       4.10326000      18.26860000       0.00966600      -0.08259900      -0.38905600      -0.40391600
Cu       8.12509000       6.31855000      18.24690000       0.00442600       0.33304500      -0.61950100      -0.74189600
Cu       0.72270000       6.23040000      18.09830000       0.00385900      -0.36719000       0.26777400       0.31683600
Cu       3.23325000       6.31257000      18.22330000       0.01497100      -0.08065800      -0.11445800      -0.08804500
Cu       5.71977000       6.30215000      18.15730000      -0.00923900      -0.26704600       0.02100900       0.17812900
Cu       9.46439000       8.37916000      18.19000000      -0.00150500       0.19371800       0.48786100      -0.34316300
Cu       1.86113000       8.46858000      18.21900000       0.01412800       0.28615200      -0.38591400      -0.05359300
Cu       4.46248000       8.61954000      18.17960000       0.00374900      -0.03630300      -1.37773900       0.20722700
Cu       6.97829000       8.50809000      18.18290000       0.01168700       0.02850300      -0.02910500       0.07889900
Cu       5.73862000       0.47402000      20.32800000      -0.06812300       0.13773200      -0.44436400      -0.01291900
Cu       8.28021000       0.52006000      20.24510000      -0.06932400      -0.01334300      -0.23030800      -0.02642500
Cu       0.58167000       0.24570000      20.22390000      -0.09164900       0.35115900       0.43964700      -0.01973200
Cu       3.23016000       0.41727000      20.26620000      -0.03011800      -0.23879200      -0.47333600      -0.21114100
Cu       7.01632000       2.63525000      20.41480000      -0.08092000       0.09496900       0.00954300      -0.56738400
Cu       9.70823000       2.71499000      20.27420000      -0.04122000      -0.51657600      -0.78134300      -0.09435300
Cu       2.11330000       2.62849000      20.17470000      -0.09536600      -0.72116900      -0.16495300       0.06619000
Cu       4.51780000       2.54436000      20.29270000      -0.09837500       0.13273200       0.42251500      -0.20877800
Cu       8.27591000       4.75961000      20.27870000      -0.06204200       0.04056800       0.11655600      -0.13929100
Cu       0.74699000       4.74456000      20.18780000      -0.05465400       0.00509500       0.28141900       0.00982200
Cu       3.29289000       4.73726000      20.36350000      -0.05276800      -0.19217200       0.31241900      -0.28373500
Cu       5.77006000       4.85262000      20.23140000      -0.06168200       0.13055000      -0.12534000       0.21511600
Cu       9.50652000       6.85653000      20.04400000      -0.07735800       0.41789500       0.24768400       0.97042100
Cu       1.93656000       6.84284000      20.27510000      -0.08422800       0.14375600       0.59009200      -0.21685600
Cu       4.49913000       6.97111000      20.26890000      -0.10485100      -0.12143800       0.32666700      -0.15222900
Cu       7.01714000       7.13068000      20.27690000      -0.07004200      -0.12867500      -0.35157500      -0.07879700
O        1.16799000       6.16539000      23.70150000      -1.30544200       1.10035600       0.78366500       0.25882100
O        0.05957000       7.41737000      27.23600000      -1.37052800      -0.90929500       3.67284900       0.11154500
O        1.36949000       6.83740000      29.37910000      -1.38122300      -0.15696700       0.94010700       1.61397300
O        4.50678000       2.95588000      23.67610000      -1.31522300      -0.96682700       1.18352800       2.42315700
O        7.07800000       7.22403000      23.71510000      -1.25458700       1.89956400      -0.17091900       1.08405700
O        7.24396000       7.50095000       0.55398000      -1.31367900       1.34789600       0.92618400      -1.39938200
O        3.65040000       1.43197000      26.11660000      -1.30474400      -0.32260900       0.15513200      -0.96498700
O        8.22618000       4.58067000      29.36380000      -1.29584600       0.38109500       0.69179700       1.70379000
O        7.15971000       3.90980000      26.42410000      -1.31754700      -0.23208300      -1.91360900      -0.88330700
O        9.91163000       8.55003000      24.54640000      -1.37835200      -1.33959600      -0.41732300       0.42103400
O        9.99510000       4.36462000      27.16930000      -1.33977900       0.10601900      -0.27507800       0.27536600
O        9.47950000       4.28044000       4.01208000      -1.35712600       0.05644900       0.32168900      -1.10459500
O        9.17054000       2.20692000       1.50811000      -1.33014300       0.06450900      -0.56821900      -0.10492400
O        0.15278000       8.76311000       6.53615000      -1.32616500      -0.19415000       0.09999600      -0.05128900
O        6.95577000       6.46612000      26.82620000      -1.33237200      -0.75969100       0.06185300      -0.30636600
O        1.75023000       5.95051000       3.45760000      -1.35218500       0.49288600      -0.18941900       0.73521200
O        5.39670000       2.08854000       3.08148000      -1.32903600       0.22734500       0.08391600       0.83696600
O        4.10876000       7.73518000      27.56570000      -1.25583300       1.42208000       0.82665000      -0.62627800
O        0.78156000       2.14863000      25.51420000      -1.31144500      -0.68263400       0.48619300       1.36889000
O        5.45180000       0.09456000       5.12201000      -1.32265800      -0.17075300       0.59149300      -1.01600000
O        1.56532000       2.72713000       0.49850000      -1.32778400      -3.01590800      -0.26480800       1.18061800
O        2.71278000       3.27265000       2.89020000      -1.35858100       0.59132500      -0.49135400       1.34785900
O        4.34708000       6.01901000      23.75020000      -1.30983400      -0.34731300      -0.12553300      -0.16336500
O        7.69321000       2.88089000      23.67020000      -1.32754200       0.44800200      -0.88202800       2.14133900
O        6.41665000       1.16495000      27.02340000      -1.31297600      -0.49054200       0.29178000      -0.63717800
O        9.37619000       3.60985000       6.73662000      -1.35881300      -0.41635100      -0.49912700      -1.58363000
O        2.21700000       5.89571000      26.27660000      -1.30524900       1.04939600      -0.30722200      -0.63996300
O        8.89312000       6.98351000       4.87098000      -1.33113800      -0.37116100      -0.27145600      -0.77021700
O        2.58956000       7.39604000       5.94082000      -1.26875000       0.30444800      -0.71206200       1.85559900
O        2.52896000       0.78386000      23.09560000      -1.28327100      -1.47123000      -1.03787900       1.47925300
O        3.61851000       2.14593000       6.82954000      -1.31751300       1.55506800       0.35912100      -1.49419000
O        7.90756000       0.26434000       2.99433000      -1.29782700      -0.89362200       0.10804000      -0.06266900
O        6.16433000       3.01245000       6.41823000      -1.32915200       0.46557000       0.72628900      -0.09064600
O        5.53037000       0.80626000       0.78375000      -1.34036200      -0.12271800       1.20272600      -0.11687100
O        2.36250000       4.36619000      28.69130000      -1.35716500       0.74166900      -0.92053200      -0.00303800
O        4.08541000       4.05559000      26.73740000      -1.27942000       2.54260300      -1.27793100      -1.84415600
O        6.86485000       4.34346000       2.88690000      -1.34782000       1.50343200      -0.66694600       0.34185100
O        3.03053000       0.61561000      30.08968000      -1.33821200      -0.23980700      -2.26592000      -1.96902700
O        4.39624000       5.53881000       7.34104000      -1.33320600      -0.51562400       0.20017400       0.64052900
O        7.68527000       8.73731000       7.02020000      -1.36646000      -2.20458000      -0.04006400      -1.97941400
O        5.59821000       5.65054000      29.56430000      -1.29485400      -0.28640300       0.12150900       0.56295700
O       10.08660000       6.60029000       1.57613000      -1.31047600      -0.76107600       0.86105100      -1.78340500
O        4.21086000       6.96821000       1.34116000      -1.25772500      -2.01026200      -0.27034800      -1.11699200
O        8.36612000       0.41726000      28.88310000      -1.28696200      -0.98574700       0.99222000       0.59188900
O        5.92453000       3.03498000      29.35270000      -1.37126400       0.95039800       0.80916200       1.99338300
O        5.89039000       0.70249000      24.40460000      -1.35003400       0.18701500       2.56060800       0.08876900
O        5.27700000       6.37123000       3.74183000      -1.32754000      -0.73956200       0.61657500      -0.62463400
O        1.47047000       2.28689000       5.50470000      -1.33478100       0.34143900      -0.13453400      -0.50700900
O        0.39350000       3.70404000      23.26340000      -1.32936400       0.97820200      -1.12887200      -0.97150200
O        6.84622000       5.48839000       6.27107000      -1.25341500       2.23508200       1.38403900       0.56641600
H        1.90366000       6.46948000      23.13200000       0.61752700      -0.60617600      -0.13068400      -0.20320700
H        1.67789000       6.08813000      24.55110000       0.67074600      -0.40489400      -0.35150800       0.32256600
H       10.03210000       7.83892000      26.36260000       0.66812900       0.14539300      -0.12448900       0.25296900
H        0.09892000       6.51467000      27.09700000       0.69363700       0.20173100      -3.41789800      -0.69996000
H        7.74818000       6.66723000      27.30160000       0.62529600       0.89998600       0.38621600       0.55968100
H        1.75248000       5.95237000      29.31390000       0.67501900       0.20013900      -0.23579300      -1.27167900
H        4.86380000       2.71175000      22.85640000       0.62804500       0.85045300      -0.34283400      -2.11198600
H        4.38994000       3.92869000      23.67440000       0.63642400       0.11878700      -0.32892400      -0.33204900
H        7.85420000       7.15024000      24.36280000       0.62196600      -1.51902400       0.21356600      -1.27481700
H        7.49806000       7.52060000      22.88400000       0.61341800      -0.11090800      -0.22986800       0.11041000
H        8.36236000       5.02020000       0.13092000       0.61541900      -0.22228800      -0.89232800      -1.75411200
H        6.71346000       6.82156000       0.12640000       0.67982000      -0.59949600      -0.90807700      -0.00355800
H        8.86813000       1.44305000       2.07823000       0.67893500      -0.08650200       1.06022800      -0.24057600
H        2.70169000       1.59163000      25.92670000       0.65622300       0.08430000      -0.08045800       0.04041300
H        0.75554000       4.34916000      27.56400000       0.67235300      -0.29113200       0.05879400       0.08817100
H        7.42888000       4.02408000      29.46700000       0.66588800       0.30820500      -0.03772500      -0.01376000
H        7.09749000       2.99410000      26.81270000       0.65426300      -0.11362100       0.63777500       0.03340000
H        0.31454000       7.80321000      24.32620000       0.67420300       0.71443000      -0.85368000      -0.66865200
H        0.35129000       0.46788000      24.82640000       0.68670800       0.51667800       1.07793200       0.26355000
H        5.54946000       0.84859000       4.45329000       0.64943900       0.06240100      -0.80764300       0.98167400
H        9.37638000       4.17371000      27.90850000       0.66057800       0.40715200       0.35739000      -0.25433300
H        5.05001000       6.46957000      24.24800000       0.65927300      -0.14047800       0.02949400      -0.73866700
H        9.54833000       4.08988000       4.97254000       0.69646400       0.43825800       0.32901200      -0.32262100
H        0.12676000       4.70908000       3.58217000       0.65479100      -0.55525700      -0.66346600       1.28976100
H        7.68161000       7.92348000      29.87130000       0.61561700      -0.54194300      -0.27145600       1.40740000
H        9.02503000       3.04543000       1.97363000       0.66224000      -0.15449200      -0.57442400       0.22214100
H        1.03268000       8.34388000       6.52792000       0.66587000       0.07151400       0.16917000      -0.08559700
H        0.29536000       0.90898000       6.25732000       0.64362500       0.39889500      -0.34734500      -0.11030500
H        4.04184000       1.35036000      25.21230000       0.67671600      -0.13160100      -0.10345300       0.59248500
H        7.08527000       5.51339000      26.63700000       0.69252100      -0.11525300      -0.01194900       0.05431300
H        2.21277000       6.35098000       4.23783000       0.67863400      -0.67978700       0.07781900      -0.78401900
H        4.48503000       2.34877000       3.25479000       0.64681400      -0.58178500       0.07472800      -0.34475500
H        5.87847000       2.94130000       3.22024000       0.68803400       0.42338400      -0.22415600      -0.28873100
H        3.97075000       8.62046000      27.11450000       0.65417900       0.30688700      -0.85896900       0.46400200
H        5.10831000       7.61625000      27.53550000       0.59057100      -1.77037100       0.19824800      -0.09284100
H        0.20895000       2.74281000      26.07790000       0.63138900       0.71353800      -0.69635500       0.03800500
H        0.75863000       2.70163000      24.73100000       0.66264500       0.30395400       0.34568000      -1.21906300
H        1.15071000       6.56185000       2.99698000       0.66994600       0.13423700       0.16424300       0.08330800
H        6.30821000       8.71893000       5.54343000       0.65682700       0.22906200       0.31046900      -0.03835100
H        0.61778000       2.45021000       0.86261000       0.63179100       1.71328100       1.15029100      -0.63488200
H        1.88468000       1.84700000       0.30043000       0.68548800       1.25752700      -0.88190000      -0.34817400
H        7.34273000       3.63734000      25.48690000       0.66967000      -0.03201300       0.55511100       0.35460900
H        2.43763000       4.14641000       3.15496000       0.64212800      -0.02558900       0.81117100       0.38548100
H        2.42565000       3.22939000       1.98797000       0.69855700      -0.46522000      -0.50618100      -1.42945500
H        4.29338000       6.40137000      22.84300000       0.61486900       0.50026700      -0.13317100       0.76521500
H        8.62088000       2.85913000      23.41910000       0.64813500       0.56576900       0.10131200      -0.13186900
H        6.18315000       0.83424000      26.11460000       0.66444400       0.02495400       0.42009000       0.16780300
H        9.27420000       4.08446000       7.55260000       0.63098400       0.40853500       0.35513200       0.96825600
H        7.09297000       0.56893000      27.32510000       0.63091000       0.64251400      -0.22085300       0.47388300
H        7.25539000       3.25759000      22.94290000       0.65303400      -0.99392000       1.01591200      -1.78734900
H        0.13904000       3.28584000       6.61542000       0.67157900       0.30566500      -0.04082700       0.35823700
H        2.91979000       5.18266000      26.28900000       0.66132800      -0.87954000       0.38998100      -0.04851400
H        2.81822000       6.64359000      26.43280000       0.63707500      -0.24616100       0.26348800       0.29760500
H        9.43630000       7.59087000       5.39258000       0.67899400       0.28669300       0.34185000       0.45896200
H        3.27740000       8.07947000       6.06381000       0.64288200      -0.14497600      -0.28969500      -0.23894000
H        1.83546000       0.57488000      22.45360000       0.60292200       0.13113500       0.07331400      -0.15685800
H        9.47646000       6.37943000       4.38211000       0.64603100      -0.24690700       0.08975500       0.38079600
H        3.20262000       1.23207000      22.62840000       0.60627600       1.15080000       0.90253400      -0.95869300
H        3.57450000       2.08268000       7.78941000       0.60413500       0.32999900      -0.01611900       0.48941900
H        4.55786000       2.40520000       6.50672000       0.66198200      -1.49925000      -0.36836100       1.09202500
H        6.97075000       8.73454000       3.05927000       0.62768700       1.35023200       0.18259100      -0.05188600
H        6.68376000       2.22469000       6.56042000       0.64315400       0.45853700      -0.46414100       0.16578000
H        8.44444000       8.37820000       3.43515000       0.66941900      -0.18434600      -0.43788400       0.36558600
H        6.81197000       3.78084000       6.37089000       0.66619600      -1.07261800      -0.83769600      -0.27937600
H        5.63175000       2.81120000      28.50140000       0.68041700      -0.75618500      -0.86877400      -1.76838600
H        6.09542000       0.07148000       0.59327000       0.67970100       0.85147200      -1.48049000      -0.39943500
H        5.85488000       1.08945000       1.64803000       0.66372000      -0.56876500       0.59533700       0.41600800
H        2.23500000       3.71101000      29.42780000       0.67368600      -0.11548200       0.35219800      -0.61929600
H        5.05860000       4.17762000      26.47490000       0.63472100      -1.38498800       0.29753500       0.72212000
H        6.35529000       5.01378000       3.34100000       0.68208300      -0.76922900       1.01669200       0.18320200
H        3.97440000       3.18300000      26.22800000       0.64579200      -0.46681900       0.52450400       1.01608200
H        3.14443000       4.06594000      28.12820000       0.67090300      -1.10200200       0.64774400       0.97267400
H        7.73426000       4.39180000       3.37051000       0.65651400      -0.60548200      -0.24537400      -0.51914100
H        2.90907000       8.68261000      29.34790000       0.61614200       0.43126900       1.75285900       2.12056700
H        3.87856000       0.36738000       0.40453000       0.70833400      -0.47070700       0.42351800      -0.32554500
H        2.73627000       6.79445000       6.74994000       0.63087300      -0.02852800       1.00154600      -1.69575200
H        6.98859000       8.73115000       7.68351000       0.59820900       0.31067500      -0.02352100       0.72125100
H        5.72007000       4.72280000      29.85090000       0.68320600      -0.37422600       0.15369300      -0.17927600
H        8.54838000       0.04011000       7.37127000       0.70390900       1.48474900       0.05243200       0.96663100
H        4.49841000       4.60045000       7.23981000       0.62968100      -0.66371200      -1.34049300       0.00574900
H        5.74956000       5.61455000      28.62230000       0.62393000       0.11436900       0.16120700      -0.57948900
H        0.52201000       6.68272000       0.72462000       0.65488100      -0.90256600       0.00584500       1.00216300
H        9.20951000       7.01341000       1.28511000       0.62166500       1.35705100      -0.72722400       0.69993200
H        1.02752000       7.25175000      28.55960000       0.70382900       0.36239000      -0.89425700      -0.03240500
H        4.40088000       6.59225000       0.43146000       0.66141100       0.00380500       0.21307400       1.17334300
H        9.23344000       0.05538000      28.85970000       0.65885700       1.36157700      -0.47531600      -0.29313200
H        3.21052000       7.02019000       1.36971000       0.60201200       1.67691900      -0.04652200      -0.07748200
H        8.40421000       1.17031000      29.51310000       0.65845500      -0.00462300      -0.45804100      -0.38977000
H        5.83314000       2.25750000      29.94010000       0.70029500      -0.27065300      -0.43862800      -0.05734300
H        5.25928000       5.74831000       6.97930000       0.71142700       0.95615600       1.00465700      -0.59112100
H        6.46213000       1.46931000      24.08060000       0.65205700      -0.85921800      -1.09716900       0.51912700
H        6.37825000       8.71703000      24.13760000       0.68522100       0.60348500      -1.43221600      -0.42667300
H        5.28152000       7.22798000       4.20398000       0.64623100       0.15192200      -0.09261600       0.37035100
H        4.75997000       6.60371000       2.91865000       0.65522300       0.70619700      -0.60024300       0.41870200
H        1.61833000       2.26499000       4.53340000       0.63955100      -0.05874400       0.25458400       0.76031000