246
Lattice="10.140377178 0.0 0.0 0.0 8.78182424 0.0 0.0 0.0 30.131127158" Properties=species:S:1:pos:R:3:initial_charges:R:1:forces:R:3 NELECT0=1456.0 NELECT=1456.0 stress="0.013656871356089633 0.0011132730167472933 0.0024355554495930393 0.0011132730167472933 0.013070519022767655 -0.0004272125751393314 0.0024355554495930393 -0.0004272125751393314 0.010030804214316494" free_energy=-1812.73934338 energy=-1812.62670114 pbc="T T T"
Cu       7.06177000       1.06559000       9.94219000       0.14277800      -0.23776000      -0.15848000      -0.56605300
Cu       9.68805000       1.11652000       9.86807000      -0.06294400      -0.45999400      -0.41864700       0.18432800
Cu       2.03025000       1.02790000       9.79059000      -0.01378700      -0.45153900       0.04381200       0.43779100
Cu       4.39020000       1.07809000      10.02860000      -0.04370900       0.49190200      -0.07180900      -0.30728600
Cu       8.34448000       3.22291000       9.81525000      -0.04087700       0.04499100       0.35608900       0.34012600
Cu       0.70805000       3.22106000       9.94319000      -0.08450000       0.08072600       0.16583500      -0.22487900
Cu       3.23636000       3.38438000      10.08280000      -0.10633000       0.06065800      -0.75909900      -0.57399000
Cu       5.80942000       3.21590000       9.76734000      -0.00765800      -0.18223800       0.37427100       0.52555200
Cu       9.49538000       5.47922000       9.85266000       0.12969000       0.19218000      -0.41114900       0.01672100
Cu       1.85410000       5.39976000       9.96367000      -0.03982500       0.34492700       0.35632300      -0.18730700
Cu       4.54731000       5.40638000       9.89471000      -0.01018100      -0.16476600       0.21627000      -0.13507900
Cu       7.00739000       5.51400000       9.80067000      -0.04761700       0.00702300      -0.40717600       0.37783700
Cu       0.57994000       7.62562000       9.95866000      -0.02269500       0.94217800       0.24356000      -0.52929100
Cu       3.19737000       7.50777000       9.91429000      -0.00378500       0.01577500       0.50947700      -0.00529600
Cu       5.73062000       7.66494000       9.97613000      -0.04936300      -0.07454300       0.12089000       0.04384100
Cu       8.35043000       7.63189000       9.88964000       0.02094700      -0.76615400       0.39092300       0.48311900
Cu       5.71159000       1.90397000      11.95140000       0.02975300      -0.29837500      -0.40715800      -0.06943600
Cu       8.09800000       1.75208000      11.89920000       0.01231800       1.51069300       0.21126500       0.47298600
Cu       0.62508000       1.79758000      11.93930000       0.03240400       0.08391400      -0.10475700       0.28998100
Cu       3.15404000       1.81760000      11.98130000       0.00422700      -0.15535100       0.12669500       0.14272900
Cu       7.10179000       3.94637000      11.84810000       0.03666300      -0.15874100       0.57609300       0.15308900
Cu       9.65482000       4.05920000      11.98450000       0.02857000      -0.84980100      -0.36254500      -0.36321800
Cu       1.93274000       4.04962000      11.95530000       0.00281800       0.11957400      -0.31352000       0.69127000
Cu       4.57797000       4.05764000      11.96150000       0.01453100      -0.27941400      -0.23185100       0.21432100
Cu       8.24402000       6.19356000      11.95670000       0.01520800       0.04216700       0.01812600      -0.11731500
Cu       0.65229000       6.20673000      11.95640000       0.04253200       0.06108200      -0.13127100       0.13735700
Cu       3.23734000       6.16373000      11.94320000       0.01724100      -0.02653200       0.14187800       0.15045300
Cu       5.76086000       6.21070000      11.88510000       0.02787700       0.03870500      -0.05204900       0.57199500
Cu       9.58658000       8.31668000      11.92350000       0.01107700      -0.71087500       0.75116700       0.39574200
Cu       1.92171000       8.32302000      11.88070000       0.03811100       0.21053300       0.49355200       0.32619000
Cu       4.42633000       8.46111000      12.03430000       0.01025300       0.01883800      -0.41134900      -0.40460800
Cu       6.92023000       8.43187000      12.00960000       0.02518900       0.35119600      -0.27060000      -0.30540000
Cu       5.70396000       0.36591000      14.03060000       0.02475300      -0.01436700       0.09013600       0.20498500
Cu       8.23906000       0.36591000      14.03060000       0.00273600       0.11684600      -0.03467000      -0.06142100
Cu       0.63377000       0.36591000      14.03060000       0.00360200       0.04841500      -0.06764500      -0.17956800
Cu       3.16887000       0.36591000      14.03060000      -0.02255900      -0.14395400      -0.04710800       0.09634400
Cu       6.97151000       2.56137000      14.03060000       0.00049300       0.02733900       0.05389900      -0.02996400
Cu       9.50660000       2.56137000      14.03060000       0.00372400      -0.11714400      -0.06864600      -0.23696700
Cu       1.90132000       2.56137000      14.03060000      -0.00031900      -0.06860800      -0.01513700      -0.02482300
Cu       4.43642000       2.56137000      14.03060000       0.00375200      -0.00524700       0.00085900      -0.01839800
Cu       8.23906000       4.75682000      14.03060000      -0.00108000      -0.00699800      -0.07996900      -0.15112200
Cu       0.63377000       4.75682000      14.03060000       0.00087200       0.13939400       0.02672900       0.22671600
Cu       3.16887000       4.75682000      14.03060000      -0.00257500       0.04236200      -0.04995600      -0.01684600
Cu       5.70396000       4.75682000      14.03060000       0.01000300       0.19264400       0.01023700      -0.11957200
Cu       9.50660000       6.95228000      14.03060000       0.00547800      -0.00797100      -0.03276600       0.01378200
Cu       1.90132000       6.95228000      14.03060000       0.03126700       0.05846400      -0.02725500      -0.10776800
Cu       4.43642000       6.95228000      14.03060000       0.00477700       0.07503500      -0.07098000      -0.07421800
Cu       6.97151000       6.95228000      14.03060000      -0.02369400      -0.01152900      -0.06254900      -0.05769200
Cu       6.97151000       1.09773000      16.10050000       0.00152900       0.00139600       0.19874500      -0.06729900
Cu       9.50660000       1.09773000      16.10050000      -0.01911900       0.12529400       0.09922300       0.03485700
Cu       1.90132000       1.09773000      16.10050000       0.00779800      -0.05812900      -0.06890200       0.26900700
Cu       4.43642000       1.09773000      16.10050000       0.03044700       0.02105800      -0.13797800       0.03498600
Cu       8.23906000       3.29318000      16.10050000       0.00041900      -0.02182400       0.13509600       0.11453800
Cu       0.63377000       3.29318000      16.10050000       0.03382000      -0.09931400      -0.08686500       0.12036900
Cu       3.16887000       3.29318000      16.10050000       0.00565100      -0.08223500      -0.09573100      -0.23590800
Cu       5.70396000       3.29318000      16.10050000      -0.01790800       0.17767300       0.07697500      -0.30247900
Cu       9.50660000       5.48864000      16.10050000       0.03085200      -0.02187400       0.01217500       0.02846500
Cu       1.90132000       5.48864000      16.10050000       0.00617500       0.10082800      -0.01045900       0.00291800
Cu       4.43642000       5.48864000      16.10050000      -0.01752000      -0.19478400       0.27490700      -0.34841400
Cu       6.97151000       5.48864000      16.10050000      -0.00025400       0.20695200      -0.08457500      -0.11435600
Cu       0.63377000       7.68410000      16.10050000      -0.00067000       0.42031900      -0.08460400      -0.23568100
Cu       3.16887000       7.68410000      16.10050000       0.00182200       0.08945800       0.04567500       0.30071800
Cu       5.70396000       7.68410000      16.10050000       0.00417000      -0.05163900       0.20669800       0.01222500
Cu       8.23906000       7.68410000      16.10050000       0.00241400      -0.03902300       0.06728300      -0.20902300
Cu       5.64946000       1.94043000      18.13140000       0.01656600       0.82409500      -0.51167800       0.26261500
Cu       8.36404000       1.90129000      18.16150000       0.01417100      -0.33777700      -0.34210600       0.06419200
Cu       0.70074000       1.82884000      18.30080000       0.01988900      -0.13198200      -0.25076800      -0.44731000
Cu       3.22721000       1.83188000      18.16360000       0.03060000      -0.26010000      -0.10663100       0.30595700
Cu       6.94765000       4.05339000      18.24230000       0.01512100       0.52381000       0.29801700      -0.83107500
Cu       9.54271000       4.05579000      18.20820000       0.04072300      -0.23990600      -0.12242700      -0.01541000
Cu       1.89647000       3.94125000      18.15260000       0.02336500       0.22098000       0.33146800       0.14992900
Cu       4.43570000       4.07848000      18.03760000       0.01301200       0.04416400      -0.05819900       0.74709600
Cu       8.28727000       6.33170000      18.15900000       0.02335900      -0.37265500      -0.72499900      -0.19386600
Cu       0.68218000       6.15275000      18.15830000       0.02795400       0.02747300       0.17498000      -0.07836100
Cu       3.09139000       6.24332000      18.26770000       0.00981900       0.82957500      -0.25637100      -0.17038700
Cu       5.72364000       6.19917000      18.04870000       0.01786400      -0.09252800       0.37112100       0.90783200
Cu       9.64363000       8.33503000      18.05720000       0.01550300      -0.19429500       0.58784400       0.58657600
Cu       2.10710000       8.41531000      18.31870000       0.01717500      -0.57203700       0.20630800      -0.49824900
Cu       4.57865000       8.46126000      18.31720000       0.03340900      -0.40274900      -0.23496900      -0.18167700
Cu       7.00878000       8.54039000      18.14000000       0.01200300       0.18785100      -0.25243000       0.19926200
Cu       5.83863000       0.41763000      20.30650000      -0.01748800       0.12655900      -0.01350000      -0.29775600
Cu       8.43138000       0.29237000      20.13060000      -0.05664900      -0.73772900       0.15550400      -0.10101400
Cu       0.63146000       0.23009000      20.17440000      -0.07032200       0.28603000       0.53835800       0.12109500
Cu       3.23858000       0.32024000      20.40600000       0.14523300       0.14449300       0.04293000       0.19559000
Cu       7.11218000       2.70132000      20.14220000      -0.02853800      -0.16133800      -1.16765000       0.42007900
Cu       9.54853000       2.50256000      20.37670000      -0.02834000       0.33428000       0.01337200      -0.35590200
Cu       1.98768000       2.47428000      20.31280000       0.00131900      -0.16878900       0.11438500      -0.27817300
Cu       4.53523000       2.55288000      20.18750000      -0.03837800       0.18573500      -0.08272100       0.02816600
Cu       8.42713000       4.75914000      20.32010000      -0.01598700      -0.44282000      -0.22802400      -0.31430000
Cu       0.71443000       4.68381000      20.26250000      -0.00744900       0.32544200      -0.44194500      -0.15492600
Cu       3.30087000       4.57800000      20.12670000      -0.12195700      -0.17341300       0.71514900       0.09787600
Cu       5.96724000       4.80999000      20.28550000       0.02539900      -1.01951100      -0.03939900       0.09427200
Cu       9.56838000       6.77826000      20.14380000      -0.02545500      -0.28630700       0.89641500       0.24902000
Cu       1.78714000       6.89944000      20.26370000       0.10182300       0.98623400      -0.27837100       0.51170100
Cu       4.58821000       6.89115000      20.32630000      -0.05934400      -0.35200300      -0.04124000      -0.55904600
Cu       7.04487000       6.96442000      20.14870000      -0.03168000       0.05875400       0.19330000       0.04317800
O        5.21918000       1.57628000      23.98400000      -1.27523400       0.53060600      -1.69140600      -0.66539400
O        4.50013000       1.12859000       6.78543000      -1.35671900      -0.05497900      -0.45910300      -0.47813800
O        0.87452000       4.20247000       6.20469000      -1.32431700       0.37786900      -0.07824300      -0.15997100
O        2.06045000       4.04542000      26.30100000      -1.24744600       0.15386600       0.50138300       0.35739200
O        9.98665000       6.27778000      24.35290000      -1.33664000       0.09240300       0.76941900      -0.35508200
O        3.37106000       6.40053000       4.03865000      -1.30693600      -0.35727900      -0.39288000       0.06063700
O        9.61298000       6.10838000       7.62854000      -1.31656000      -0.55467000      -0.12316800      -0.43285800
O        7.10438000       0.95009000       7.84431000      -1.33235700      -0.63340100      -1.94486500      -0.24229500
O        5.62717000       4.43613000       5.75280000      -1.30269500      -0.29972400       0.83127800      -1.99352700
O        5.25772000       1.98981000       3.87833000      -1.31303600      -0.02666800       0.34123900      -0.09774200
O        1.66459000       7.33328000       6.31404000      -1.29670300      -0.33925400       0.61344000      -0.40566500
O        6.19933000       0.57361000      29.04590000      -1.35949100      -1.74543700       0.90025700      -1.39538500
O        4.19596000       6.99135000       7.19397000      -1.30035600       0.26543600      -0.04218000       0.80033700
O        7.93813000       3.22587000       6.01164000      -1.38317900      -0.45321700      -1.74985300      -0.83184400
O        8.24927000       0.68152000      26.07830000      -1.29536200      -0.62066000       0.03650600      -1.06232300
O        8.98415000       1.12524000       4.55282000      -1.31615300       0.50012700      -0.60440600      -0.87652800
O        3.58528000       3.93951000       7.00359000      -1.31759900      -0.62268400      -0.40006400       0.71226400
O        0.26482000       5.71711000       3.70709000      -1.32564100      -0.40583900       0.20944400      -0.63399800
O        1.33065000       2.85313000      23.65200000      -1.40240300       1.07850200      -0.51764100       0.12133200
O        2.32126000       0.53327000      27.96820000      -1.36381700       0.63453500       0.37542400       0.08690200
O        2.04971000       5.38356000       1.52971000      -1.41847200      -1.70328500       1.37820700       0.57088500
O        8.18016000       4.08190000       3.16101000      -1.29427500       0.82700900       0.92946900       1.19630900
O        7.71933000       6.11274000      30.06756000      -1.32818200      -0.82306500       0.67512100       0.22860800
O        0.29477000       3.34082000      28.68040000      -1.36501000      -0.37466400      -1.83475500      -0.80271100
O        6.99809000       7.04259000      25.75800000      -1.35091700       0.27330900       1.09309800      -0.05513000
O        8.93865000       8.39769000      23.28240000      -1.34113200       0.82036800       0.02340900       1.23201100
O        4.74138000       0.36915000      26.77490000      -1.28812800       0.74924200       0.76072400       0.74114500
O        0.73041000       1.09340000      26.00970000      -1.33026900      -0.66816500      -1.19086900       0.97328200
O        2.74467000       0.45199000      22.64690000      -1.30532200      -0.42888400      -1.22411500      -0.19832700
O        2.34831000       0.99210000       0.48775000      -1.31694100       0.34046800      -0.50340300      -0.10247900
O        0.93430000       1.34397000       6.60482000      -1.33130600       0.35339800      -0.42716400      -2.29280400
O       10.06490000       1.46402000       2.05365000      -1.27797300      -1.45734400      -0.74831400      -0.81276400
O        1.41309000       6.87493000      27.19710000      -1.30574300      -1.04891500       0.62628500      -1.50742900
O        0.36824000       5.83656000      29.47000000      -1.36764400       0.25759200       0.45636500      -0.20477800
O        1.80045000       6.77650000      22.63590000      -1.31544900       0.15436500      -1.23443400       0.46779600
O        4.82122000       4.20167000      27.02460000      -1.33161300      -0.35727800       1.19471300      -0.51827200
O        8.93802000       3.59043000      23.67150000      -1.33845700      -0.81722500       0.67249000       0.57254800
O        6.15343000       7.70509000      23.32990000      -1.34802900       0.87589500       1.48863300       1.62994300
O        3.83139000       3.16001000       1.69454000      -1.28363000       1.56812800      -0.37209900       1.55393800
O        3.29603000       7.25384000       0.55537000      -1.34251700       0.06515300       1.01771300      -0.64212900
O        5.09147000       6.70105000      28.62930000      -1.32375500      -1.17477200      -0.19646800      -0.28906700
O        6.52485000       3.48442000       1.01273000      -1.32175600       0.49182000      -0.02929500       0.04269000
O        7.49232000       4.42497000      25.87610000      -1.27403600       1.25531600      -1.30741900       1.02016400
O        5.46363000       8.10118000       2.90879000      -1.33116300      -0.08971700      -0.82527200       0.77003800
O        6.13879000       4.01007000      23.04640000      -1.36822500       0.72399500       1.57809500      -0.53563500
O        7.67490000       8.71300000       1.46145000      -1.32054100       1.52279700      -1.19834500      -1.56796400
O        3.37461000       4.72871000      23.37300000      -1.29863400      -0.00479900      -0.29705900      -0.37493800
O        7.81209000       2.54472000      28.02620000      -1.28936500       2.45861300       1.52424200       2.01575800
O        7.45311000       7.28253000       4.49732000      -1.30447500      -0.39262400       0.26278500       0.25831000
O        7.10762000       7.10300000       6.99345000      -1.37706500      -1.12083800      -0.27297800       2.43809000
H        5.54134000       0.67513000      23.67210000       0.63659200      -0.30016700       0.98511700      -0.22637900
H        5.31138000       1.40442000      24.92320000       0.63260300      -0.35949700       0.22569300       0.88005800
H        5.32623000       1.33841000       7.25336000       0.67081100      -0.32344200       0.15460000       0.23779200
H        3.82257000       1.78674000       7.00627000       0.66427700       0.35711500       0.10872800       0.10434800
H        8.01647000       0.81239000      25.12720000       0.61914500       0.38551600      -0.01925800       0.96409000
H        0.47271000       4.58054000       6.99776000       0.66386900      -0.16591900       0.44963600       0.10509900
H        2.10207000       3.64608000      25.43970000       0.62417900      -0.07445800      -0.64717000      -0.83000600
H        1.91022000       4.97499000      26.06840000       0.63909600      -0.05601000       0.16043100       0.51584400
H        9.48712000       7.03712000      23.87530000       0.67565900       0.29538500      -0.94316700       0.57974800
H        9.67517000       5.41179000      24.03930000       0.65590300      -0.24196400       0.18540900      -0.14983400
H        7.05015000       8.73813000       7.57663000       0.67596400       0.35861400       1.54334700      -0.15281900
H        2.90517000       5.82420000       3.38209000       0.62898700       0.24564700       0.73311200       0.73241200
H        4.26907000       6.71466000       6.29237000       0.62802600       0.02009400      -0.79560500      -1.17774200
H        8.69290000       6.29548000       7.34419000       0.66841800      -0.14892500      -0.00867700       0.33331900
H        1.70345000       8.31026000       6.23639000       0.64211400      -0.29659200      -0.30754800       0.12751600
H        7.31936000       1.49857000       7.08525000       0.66328900       0.62326500       0.36148600      -0.37473200
H        4.82814000       4.32532000       6.34209000       0.68070900       0.21054000      -0.07957900      -0.18314000
H        5.03679000       1.73668000       4.78049000       0.64384300      -0.30655500       0.26741500       0.52742800
H        5.39325000       1.12291000       3.48725000       0.66366000       0.10645300      -0.66996100      -0.49992700
H        3.14776000       0.64773000      27.44230000       0.69242400       0.17199900      -0.27990900       0.04845200
H        2.30632000       7.17620000       7.01698000       0.64765700       0.33079300      -0.25487500       0.22794600
H        7.32660000       5.25975000       0.13769000       0.63540800       0.02262300      -0.55320000       0.29541600
H        6.43158000       0.04667000      29.77050000       0.68317000       0.68364200      -1.19987600       1.65938500
H        6.92664000       1.13757000      28.82640000       0.67298800       1.16260400       0.81369100      -0.19565000
H        2.71877000       6.69056000       4.72200000       0.64980500       0.07181600      -0.31126900      -0.69755900
H        4.38552000       7.92911000       7.10980000       0.66390100      -0.05758800       1.02205100       0.24387800
H        8.46647000       3.87281000       6.43205000       0.66727600       0.74544100       1.13983700       0.78330800
H        7.00639000       3.52416000       5.99638000       0.71152500      -0.39782600       0.69717600      -0.07660200
H       10.11880000       6.76650000       7.12032000       0.64773900       0.75414500       0.03892400       0.02648200
H        9.22836000       0.75211000      26.07070000       0.68243000       0.48775500      -0.01030300      -0.17108200
H        8.76177000       2.01762000       4.78361000       0.66409700      -0.73743400       0.86257900       1.12810300
H        3.42659000       4.06863000       7.96995000       0.57612300       0.15636800       0.07630100      -0.22542700
H        2.76103000       4.21957000       6.58198000       0.68608800      -0.44578400       0.21057700      -0.17858000
H        0.87577000       5.72509000       2.92560000       0.66665900      -0.24162500      -0.41872500       0.65762000
H        0.60302000       5.15083000       4.41686000       0.66448300       0.23907700       0.01667600      -0.12435900
H        1.56426000       2.04931000      23.14400000       0.67867100       0.00214900       0.09180500       0.21662100
H        0.41793000       3.08782000      23.43310000       0.71537200      -0.62059800       0.17319100      -0.07002800
H        9.28985000       1.32566000       3.63255000       0.64120000       0.37053100      -0.79446600       0.20251900
H        2.56431000       0.82532000      28.87640000       0.68052100      -0.72659300      -0.12397100      -0.19820900
H        2.52013000       4.57880000       1.55278000       0.71154300       1.20707400      -1.95307100      -0.00542900
H        2.62964000       6.11794000       1.16966000       0.69621300       0.16526900       0.06584800      -0.11162800
H        5.22798000       4.62625000       4.84462000       0.60866900       0.87043600      -0.47943800       1.72959300
H        8.91455000       4.81809000       3.25465000       0.63775600      -1.12162800      -1.74468900       0.09106300
H        7.96300000       3.75513000       4.08689000       0.62820900       0.48475200       0.75502400      -1.28749000
H        8.63606000       5.95508000      29.83380000       0.68705100       0.81081100      -0.11365200      -0.20145300
H        0.16900000       4.29109000      28.77830000       0.70980900       0.39606000       0.88858800       0.14904000
H        7.60432000       7.80713000      26.03610000       0.65826800      -0.64758500      -1.39595800      -0.30111600
H        9.36836000       8.77398000      22.51270000       0.62478000      -0.11647400       0.18366900      -0.63945500
H        7.41896000       6.15611000      25.78240000       0.68866500       0.25195900       0.59479000       0.36519900
H        0.71689000       3.15736000      27.81210000       0.65496000      -0.23562100       0.56647900       0.76933900
H        8.00720000       8.26801000      23.12950000       0.69295200      -1.05925800      -0.14811600      -0.72288100
H        5.32563000       0.61582000      27.55600000       0.66088500      -0.59998200      -0.25708600      -0.57344500
H        4.86436000       8.20138000      26.85770000       0.64177700       0.00349700      -0.56684100      -0.27322800
H        0.97789000       1.82117000      25.46590000       0.65131700       0.47068400       0.92541600      -0.70683100
H        3.55864000       0.65401000      23.14410000       0.65131500      -0.22268700      -0.19690300       0.03940900
H        1.61032000       1.12132000       1.10108000       0.67788600      -0.28700200       0.26555600       0.05915700
H        1.24949000       1.05703000      26.85420000       0.66874100       0.00030500       0.24178300      -0.43367600
H        3.12775000       1.41821000       0.87188000       0.66622500      -0.11750500       0.54363300       0.20434800
H        0.21662000       1.08271000       5.94790000       0.66119100       0.46046800       0.66554200       1.11367000
H        0.60826000       1.55774000       7.46863000       0.62930200      -0.89936500      -0.17273800       0.99306800
H        9.28283000       0.92362000       1.70091000       0.66588200       1.00572900       0.25577500       0.49314200
H        1.83769000       7.74423000      27.38470000       0.68652700      -0.07480100      -0.26612600       0.32687900
H        9.79271000       2.34016000       1.75900000       0.63909700       0.24472700       0.38056200       0.07180600
H        0.76177000       7.11641000      26.47230000       0.62970400       0.95721900      -0.58764400       1.04241700
H        5.85228000       3.14983000      23.28870000       0.70833000      -0.23372900      -2.12905300       0.49949200
H        1.09312000       5.71891000       0.01407000       0.67202600      -0.71392400       0.05299000      -0.67716000
H        0.71015000       6.29750000      28.64380000       0.68857000       0.04945600      -0.33322500       0.89047600
H        1.05317000       6.60069000      23.34500000       0.65632400       0.82037900      -0.00948500      -0.82026300
H        3.88578000       4.04195000      26.79170000       0.68418000       0.00908800      -0.13087900       0.05546100
H        8.53805000       3.81729000      24.56120000       0.66364100       0.10879600      -0.29379800      -0.62434000
H        5.18677000       3.40607000      27.36850000       0.64967900       0.25500100      -1.04795700       0.54824700
H        2.39106000       5.92948000      22.67940000       0.64143400      -1.01151300       1.65502900       0.52940600
H        8.18586000       3.82832000      23.09040000       0.65920800       0.34111100      -0.22084800       0.07173200
H        6.40505000       7.38929000      24.26130000       0.67193000      -0.03529000       0.08254900      -0.21044300
H        5.82330000       6.94902000      22.89490000       0.63234900      -0.62602900      -1.31080900      -1.09150000
H        2.43242000       8.23324000      22.78870000       0.66114200       0.70230300       1.45342400      -0.08118500
H        3.76578000       7.08332000      29.83230000       0.67067200       0.07210000       0.16252100       0.40682600
H        4.79618000       5.87770000      28.20560000       0.66184300       0.16912200      -0.02122800      -0.23138300
H        2.78833000       8.11560000       0.46080000       0.67064400       0.58654200      -0.64935100       0.11991700
H        4.58917000       3.68137000       1.27696000       0.63646500      -0.79435700      -1.34172600       1.01608800
H        5.84013000       6.41741000      29.14510000       0.67348900       0.93495000       0.05063700       0.26856000
H        6.57528000       2.63055000       0.52396000       0.63953300       0.26653300       0.77395700       0.93020500
H        7.10331000       3.52961000       1.83943000       0.68555900      -0.54990900      -0.38614200      -1.12337700
H        1.07495000       3.28622000       6.44611000       0.63952600      -0.23633100      -0.51048900      -0.29157300
H        6.53442000       4.38533000      25.81530000       0.64185000      -0.49945100      -0.19773300       0.10304400
H        5.83175000       7.49919000       3.61526000       0.65669300      -0.34084500       0.94766800      -0.81778500
H        7.74445000       3.77543000      26.62310000       0.64356500      -0.76106900       1.25949000      -0.83272300
H        4.60252000       7.71030000       2.67639000       0.68149700       0.22357300       0.15171200       0.02592200
H        5.31193000       4.47929000      23.16070000       0.63800200      -0.13313200       0.49829400       0.25674200
H        4.23775000       2.71515000       2.57474000       0.63464300      -0.69765200       1.45552800      -2.25982900
H        7.76499000       7.77564000       1.11509000       0.63345200       0.07726300       1.10401400       0.16601200
H        6.97657000       8.60545000       2.08687000       0.68212800      -1.31972400      -0.00867500       0.96522800
H        2.77048000       3.94349000      23.41050000       0.66880500       0.07345300       0.32694200      -0.13763600
H        3.74194000       4.69513000      22.46290000       0.58581200      -0.24856500      -0.23023200      -0.02189600
H        8.74280000       2.79482000      28.49400000       0.61709100      -1.96315700       0.04309000      -0.64070700
H        8.24450000       2.04342000      27.35080000       0.65661800      -0.22470700      -1.39423200      -1.46520400