246
Lattice="10.140377177804453 0.0 0.0 0.0 8.781824239934606 0.0 0.0 0.0 30.1311271579" Properties=species:S:1:pos:R:3:momenta:R:3:forces:R:3 target_atoms="0 1 2 3 4 5 6 7 8 9 10 11 12 13 14 15 16 17 18 19 20 21 22 23 24 25 26 27 28 29 30 31 32 33 34 35 36 37 38 39 40 41 42 43 44 45 46 47 48 49 50 51 52 53 54 55 56 57 58 59 60 61 62 63 64 65 66 67 68 69 70 71 72 73 74 75 76 77 78 79 80 81 82 83 84 85 86 87 88 89 90 91 92 93 94 95 96 97 98 99 100 101 102 103 104 105 106 107 108 109 110 111 112 113 114 115 116 117 118 119 120 121 122 123 124 125 126 127 128 129 130 131 132 133 134 135 136 137 138 139 140 141 142 143 144 145 146 147 148 149 150 151 152 153 154 155 156 157 158 159 160 161 162 163 164 165 166 167 168 169 170 171 172 173 174 175 176 177 178 179 180 181 182 183 184 185 186 187 188 189 190 191 192 193 194 195 196 197 198 199 200 201 202 203 204 205 206 207 208 209 210 211 212 213 214 215 216 217 218 219 220 221 222 223 224 225 226 227 228 229 230 231 232 233 234 235 236 237 238 239 240 241 242 243 244 245" step=0 energy=-1801.207195016779 pbc="T T T"
Cu       6.92118000       1.19320000       9.95392000       0.00000000       0.00000000       0.00000000      -0.15367000      -0.33499000      -0.39112900
Cu       9.35125000       1.20408000       9.83483000       0.00000000       0.00000000       0.00000000       0.27388700      -0.48031500       0.00909378
Cu       1.83220000       1.10797000       9.89589000       0.00000000       0.00000000       0.00000000       0.05968570      -0.13867900       0.04046420
Cu       4.34295000       0.97340400       9.88331000       0.00000000       0.00000000       0.00000000      -0.02736290       0.53015800       0.03574930
Cu       8.23042000       3.41038000       9.90457000       0.00000000       0.00000000       0.00000000      -0.49827000      -0.51640200       0.10308900
Cu       0.55181800       3.26653000       9.89518000       0.00000000       0.00000000       0.00000000       0.56636600      -0.15783700       0.02029790
Cu       3.20681000       3.33883000       9.94230000       0.00000000       0.00000000       0.00000000      -0.11569100      -0.68885500      -0.04815000
Cu       5.69179000       3.27099000       9.84998000       0.00000000       0.00000000       0.00000000      -0.11950800       0.42872400       0.26459100
Cu       9.60868000       5.40388000       9.67621000       0.00000000       0.00000000       0.00000000      -0.57863300       0.72460100      -0.13986400
Cu       1.91753000       5.35045000       9.87344000       0.00000000       0.00000000       0.00000000      -0.08781730       0.62290600       0.19100100
Cu       4.38077000       5.51542000       9.98731000       0.00000000       0.00000000       0.00000000       0.64433200      -0.19632000       0.06383090
Cu       7.02392000       5.53421000       9.88189000       0.00000000       0.00000000       0.00000000      -0.49102400       0.05712660       0.45017500
Cu       0.55758800       7.69527000       9.94894000       0.00000000       0.00000000       0.00000000       0.54971300      -0.02049660      -0.37026500
Cu       3.16030000       7.56325000       9.79710000       0.00000000       0.00000000       0.00000000      -0.37303500       0.45735100       0.38742000
Cu       5.75485000       7.75986000       9.91083000       0.00000000       0.00000000       0.00000000      -0.14564700      -0.36687600       0.06398810
Cu       8.21887000       7.77020000       9.87332000       0.00000000       0.00000000       0.00000000      -0.09636070      -0.19953100       0.32139500
Cu       5.55527000       1.85992000      11.90240000       0.00000000       0.00000000       0.00000000       0.06315380      -0.26238900       0.24882000
Cu       8.09930000       1.86167000      11.93230000       0.00000000       0.00000000       0.00000000       0.43299900      -0.08530070       0.29472200
Cu       0.42114500       1.76658000      11.82670000       0.00000000       0.00000000       0.00000000       0.68967400       0.12384200       0.79544000
Cu       3.06917000       1.85265000      11.97190000       0.00000000       0.00000000       0.00000000       0.13800500      -0.37938800      -0.13006900
Cu       6.85457000       3.97532000      12.04360000       0.00000000       0.00000000       0.00000000       0.28704900       0.56737100      -0.72341600
Cu       9.43171000       4.08728000      11.93030000       0.00000000       0.00000000       0.00000000       0.05786930      -0.35474600       0.07082380
Cu       1.86153000       3.94397000      11.93810000       0.00000000       0.00000000       0.00000000      -0.30941500       0.36703400       0.18608000
Cu       4.38364000       4.06222000      12.00280000       0.00000000       0.00000000       0.00000000       0.04237580       0.03376860      -0.16561300
Cu       8.17585000       6.22229000      12.00720000       0.00000000       0.00000000       0.00000000       0.03512010       0.00994828      -0.55018300
Cu       0.55458100       6.16068000      11.87130000       0.00000000       0.00000000       0.00000000       0.35416200      -0.05005770       0.14740700
Cu       3.08839000       6.25723000      12.01030000       0.00000000       0.00000000       0.00000000       0.07605430      -0.65737900      -0.33665500
Cu       5.67112000       6.33292000      11.99790000       0.00000000       0.00000000       0.00000000       0.17731200      -0.83675500      -0.33398900
Cu       9.54287000       8.29915000      11.90880000       0.00000000       0.00000000       0.00000000      -0.54442400       0.72322000       0.47013800
Cu       1.97851000       8.38168000      11.94810000       0.00000000       0.00000000       0.00000000      -0.83865500       0.33502400      -0.14501900
Cu       4.37362000       8.33731000      11.93220000       0.00000000       0.00000000       0.00000000       0.17070000       0.70550300       0.01626870
Cu       6.88759000       8.48009000      12.01570000       0.00000000       0.00000000       0.00000000       0.46631100      -0.11667300      -0.32517300
Cu       5.70396000       0.36590900      14.03060000       0.00000000       0.00000000       0.00000000       0.00000000       0.00000000       0.00000000
Cu       8.23906000       0.36590900      14.03060000       0.00000000       0.00000000       0.00000000       0.00000000       0.00000000       0.00000000
Cu       0.63377400       0.36590900      14.03060000       0.00000000       0.00000000       0.00000000       0.00000000       0.00000000       0.00000000
Cu       3.16887000       0.36590900      14.03060000       0.00000000       0.00000000       0.00000000       0.00000000       0.00000000       0.00000000
Cu       6.97151000       2.56137000      14.03060000       0.00000000       0.00000000       0.00000000       0.00000000       0.00000000       0.00000000
Cu       9.50660000       2.56137000      14.03060000       0.00000000       0.00000000       0.00000000       0.00000000       0.00000000       0.00000000
Cu       1.90132000       2.56137000      14.03060000       0.00000000       0.00000000       0.00000000       0.00000000       0.00000000       0.00000000
Cu       4.43642000       2.56137000      14.03060000       0.00000000       0.00000000       0.00000000       0.00000000       0.00000000       0.00000000
Cu       8.23906000       4.75682000      14.03060000       0.00000000       0.00000000       0.00000000       0.00000000       0.00000000       0.00000000
Cu       0.63377400       4.75682000      14.03060000       0.00000000       0.00000000       0.00000000       0.00000000       0.00000000       0.00000000
Cu       3.16887000       4.75682000      14.03060000       0.00000000       0.00000000       0.00000000       0.00000000       0.00000000       0.00000000
Cu       5.70396000       4.75682000      14.03060000       0.00000000       0.00000000       0.00000000       0.00000000       0.00000000       0.00000000
Cu       9.50660000       6.95228000      14.03060000       0.00000000       0.00000000       0.00000000       0.00000000       0.00000000       0.00000000
Cu       1.90132000       6.95228000      14.03060000       0.00000000       0.00000000       0.00000000       0.00000000       0.00000000       0.00000000
Cu       4.43642000       6.95228000      14.03060000       0.00000000       0.00000000       0.00000000       0.00000000       0.00000000       0.00000000
Cu       6.97151000       6.95228000      14.03060000       0.00000000       0.00000000       0.00000000       0.00000000       0.00000000       0.00000000
Cu       6.97151000       1.09773000      16.10050000       0.00000000       0.00000000       0.00000000       0.00000000       0.00000000       0.00000000
Cu       9.50660000       1.09773000      16.10050000       0.00000000       0.00000000       0.00000000       0.00000000       0.00000000       0.00000000
Cu       1.90132000       1.09773000      16.10050000       0.00000000       0.00000000       0.00000000       0.00000000       0.00000000       0.00000000
Cu       4.43642000       1.09773000      16.10050000       0.00000000       0.00000000       0.00000000       0.00000000       0.00000000       0.00000000
Cu       8.23906000       3.29318000      16.10050000       0.00000000       0.00000000       0.00000000       0.00000000       0.00000000       0.00000000
Cu       0.63377400       3.29318000      16.10050000       0.00000000       0.00000000       0.00000000       0.00000000       0.00000000       0.00000000
Cu       3.16887000       3.29318000      16.10050000       0.00000000       0.00000000       0.00000000       0.00000000       0.00000000       0.00000000
Cu       5.70396000       3.29318000      16.10050000       0.00000000       0.00000000       0.00000000       0.00000000       0.00000000       0.00000000
Cu       9.50660000       5.48864000      16.10050000       0.00000000       0.00000000       0.00000000       0.00000000       0.00000000       0.00000000
Cu       1.90132000       5.48864000      16.10050000       0.00000000       0.00000000       0.00000000       0.00000000       0.00000000       0.00000000
Cu       4.43642000       5.48864000      16.10050000       0.00000000       0.00000000       0.00000000       0.00000000       0.00000000       0.00000000
Cu       6.97151000       5.48864000      16.10050000       0.00000000       0.00000000       0.00000000       0.00000000       0.00000000       0.00000000
Cu       0.63377400       7.68410000      16.10050000       0.00000000       0.00000000       0.00000000       0.00000000       0.00000000       0.00000000
Cu       3.16887000       7.68410000      16.10050000       0.00000000       0.00000000       0.00000000       0.00000000       0.00000000       0.00000000
Cu       5.70396000       7.68410000      16.10050000       0.00000000       0.00000000       0.00000000       0.00000000       0.00000000       0.00000000
Cu       8.23906000       7.68410000      16.10050000       0.00000000       0.00000000       0.00000000       0.00000000       0.00000000       0.00000000
Cu       5.75048000       1.77357000      18.25570000       0.00000000       0.00000000       0.00000000      -0.60964800       0.86982900      -0.22991700
Cu       8.18281000       1.88496000      18.25950000       0.00000000       0.00000000       0.00000000       0.34864400      -0.27045300      -0.74817800
Cu       0.57656300       1.87604000      18.30480000       0.00000000       0.00000000       0.00000000       0.25040100      -0.05882090      -1.37946000
Cu       3.22481000       1.80997000      18.13540000       0.00000000       0.00000000       0.00000000      -0.19973800       0.70776400       0.33745300
Cu       6.97596000       3.98413000      18.10670000       0.00000000       0.00000000       0.00000000      -0.27418000       0.52425000       0.36400300
Cu       9.46562000       4.08636000      18.32300000       0.00000000       0.00000000       0.00000000       0.29426300      -0.25136500      -1.26923000
Cu       1.87509000       3.98280000      18.20110000       0.00000000       0.00000000       0.00000000       0.35378000       0.28272000       0.10569500
Cu       4.49694000       4.02753000      18.33440000       0.00000000       0.00000000       0.00000000      -0.51937200      -0.11741400      -0.21746000
Cu       8.27152000       6.19809000      18.20370000       0.00000000       0.00000000       0.00000000      -0.51863300       0.50106400      -0.33896500
Cu       0.67615000       6.28545000      18.14460000       0.00000000       0.00000000       0.00000000      -0.40245900      -0.10402000      -0.32109600
Cu       3.15086000       6.30222000      18.18950000       0.00000000       0.00000000       0.00000000       0.39274600      -0.60265900      -0.01474430
Cu       5.64229000       6.25576000      18.35780000       0.00000000       0.00000000       0.00000000       0.50580700      -0.13473100      -0.65645800
Cu       9.42680000       8.45313000      18.16140000       0.00000000       0.00000000       0.00000000       0.28110200      -0.18058700      -0.26561900
Cu       1.90524000       8.46082000      18.01790000       0.00000000       0.00000000       0.00000000      -0.09891650       0.06443080       0.80290100
Cu       4.49240000       8.47507000      18.15650000       0.00000000       0.00000000       0.00000000      -0.23380600      -0.29751100       0.12481600
Cu       6.96608000       8.48180000      18.17490000       0.00000000       0.00000000       0.00000000       0.21354400      -0.70676100      -0.03074470
Cu       5.90678000       0.46931800      20.27260000       0.00000000       0.00000000       0.00000000      -0.87453800      -0.11769000       0.14945400
Cu       8.31209000       0.42671900      20.24320000       0.00000000       0.00000000       0.00000000      -0.14446400      -0.14192000       0.08279400
Cu       0.59537000       0.33624600      20.08240000       0.00000000       0.00000000       0.00000000       0.26565500      -0.26869700       0.62386700
Cu       3.12025000       0.45676500      20.11130000       0.00000000       0.00000000       0.00000000       0.04843590      -0.41554000       0.18677400
Cu       7.00631000       2.65523000      20.25640000       0.00000000       0.00000000       0.00000000      -0.15308500       0.06764030       0.01271080
Cu       9.44856000       2.58524000      20.17450000       0.00000000       0.00000000       0.00000000       0.12162800       0.28828600       1.12154000
Cu       1.74183000       2.47607000      20.29470000       0.00000000       0.00000000       0.00000000       0.60247800       0.62080200      -0.23138900
Cu       4.44109000       2.57567000      20.42430000       0.00000000       0.00000000       0.00000000      -0.07291050       0.04018120      -0.92009400
Cu       8.17814000       4.83148000      20.18810000       0.00000000       0.00000000       0.00000000      -0.11863000       0.05611990       0.47215200
Cu       0.57426000       4.95555000      20.13860000       0.00000000       0.00000000       0.00000000       0.06363110      -0.92907000       0.31777200
Cu       3.06246000       4.80055000      20.31050000       0.00000000       0.00000000       0.00000000       0.19484100       0.09758560       0.04162590
Cu       5.75132000       4.78027000      20.32280000       0.00000000       0.00000000       0.00000000      -0.20341300       0.39358000      -0.10183900
Cu       9.44732000       6.96901000      20.23240000       0.00000000       0.00000000       0.00000000      -0.03286610       0.41543200      -0.17380900
Cu       1.87443000       7.00268000      20.10830000       0.00000000       0.00000000       0.00000000       0.31338400       0.57834500       0.10390000
Cu       4.46240000       7.16900000      20.26480000       0.00000000       0.00000000       0.00000000      -0.18321000      -0.41753400       0.00283414
Cu       6.97079000       7.12570000      20.35040000       0.00000000       0.00000000       0.00000000       0.14667100      -0.74692600      -0.28685700
O        9.57628000       2.35989000      23.01190000       0.00000000       0.00000000       0.00000000      -2.59904000      -1.11790000       0.25412200
H        9.21340000       1.56823000      23.57270000       0.00000000       0.00000000       0.00000000       0.66887300       1.09229000      -1.02014000
H        0.34368400       2.41425000      23.24430000       0.00000000       0.00000000       0.00000000       2.31266000      -0.27297300       0.30790800
O        2.41419000       3.65544000      25.75110000       0.00000000       0.00000000       0.00000000       0.12772800      -2.24879000       1.62601000
H        2.25192000       2.85387000      26.38450000       0.00000000       0.00000000       0.00000000       0.59963700       1.47140000      -0.93655000
H        1.67772000       4.22391000      25.95820000       0.00000000       0.00000000       0.00000000      -1.22818000       1.02204000       0.20566900
O        3.49706000       8.37295000      29.26240000       0.00000000       0.00000000       0.00000000      -2.81933000      -1.78619000      -2.26412000
H        5.52521000       7.49431000      25.86190000       0.00000000       0.00000000       0.00000000      -0.08116310       0.36705600       0.10211000
H        2.71357000       7.68902000      29.34930000       0.00000000       0.00000000       0.00000000       1.83848000       1.45917000      -0.26456900
O        5.66616000       7.13807000      27.74290000       0.00000000       0.00000000       0.00000000       0.22363400       0.84386100       0.26930700
H        4.85710000       7.37813000      28.24740000       0.00000000       0.00000000       0.00000000       0.20614500       0.00524927      -0.25899300
H        5.50010000       6.27170000      27.37280000       0.00000000       0.00000000       0.00000000      -0.43766000      -0.93981300       0.15096000
O        6.48382000       3.21155000      24.69790000       0.00000000       0.00000000       0.00000000       1.45486000       2.08463000      -0.29555900
H        6.36736000       2.40974000      24.20550000       0.00000000       0.00000000       0.00000000      -0.37219700      -1.15736000      -0.29233100
H        7.17468000       3.75052000      24.11120000       0.00000000       0.00000000       0.00000000      -0.95995400      -0.80196600       1.20478000
O        4.51557000       6.77332000       7.06184000       0.00000000       0.00000000       0.00000000       0.49761500       1.21083000       0.56900500
H        5.08927000       6.09012000      24.33270000       0.00000000       0.00000000       0.00000000      -0.61530500      -0.95368600      -1.50665000
H        4.82948000       6.88077000       8.02888000       0.00000000       0.00000000       0.00000000      -0.47310500       0.16344100      -1.29784000
O        1.20641000       6.66862000      29.00140000       0.00000000       0.00000000       0.00000000      -0.86086800      -0.71780000       1.33959000
H        3.36131000       1.66307000       6.90388000       0.00000000       0.00000000       0.00000000      -0.74098800      -0.21632700       0.18200100
H        0.99700900       5.73562000      29.28750000       0.00000000       0.00000000       0.00000000       0.40378200       1.30938000      -0.46381100
O        4.92474000       5.29011000      23.71260000       0.00000000       0.00000000       0.00000000       0.18542700       1.83842000       1.24207000
H        4.87536000       1.94215000      22.76120000       0.00000000       0.00000000       0.00000000       0.59368100      -1.45032000       0.88826100
H        5.20628000       4.56318000      24.27740000       0.00000000       0.00000000       0.00000000       0.14565100      -0.66376500      -0.31514100
O        5.97740000       0.72218700      23.30980000       0.00000000       0.00000000       0.00000000      -0.19966300       0.61727700      -0.46121600
H        6.91648000       0.71113500      23.19480000       0.00000000       0.00000000       0.00000000       1.22885000       0.22494700      -0.45868500
H        2.62563000       0.54633000      26.18970000       0.00000000       0.00000000       0.00000000      -0.40287900       0.00283805       0.52991400
O        2.76102000       0.12303800      25.32470000       0.00000000       0.00000000       0.00000000       1.48296000       1.01436000      -0.71744900
H        2.04118000       8.31409000      25.19280000       0.00000000       0.00000000       0.00000000      -1.18551000      -1.00514000       0.22542800
H        1.96542000       6.48394000       5.96120000       0.00000000       0.00000000       0.00000000      -0.43871000       0.82770300      -0.28868600
O        4.35157000       2.61549000      22.36310000       0.00000000       0.00000000       0.00000000      -1.08117000       1.80703000      -0.45596600
H        3.46700000       2.73871000      22.78300000       0.00000000       0.00000000       0.00000000       0.20107200      -0.52460900       0.08483790
H        7.28487000       7.05075000      29.16510000       0.00000000       0.00000000       0.00000000      -1.06275000      -0.14791300      -0.84523100
O        8.05884000       3.25851000      27.01640000       0.00000000       0.00000000       0.00000000      -0.33379800      -0.05233420       0.19522300
H        8.78318000       3.89971000      27.11720000       0.00000000       0.00000000       0.00000000      -0.23308800       0.02652600      -0.44594400
H        7.51333000       3.49055000      26.22760000       0.00000000       0.00000000       0.00000000       0.45490000      -0.25853800       0.31833300
O        4.27217000       1.58684000       6.63430000       0.00000000       0.00000000       0.00000000       1.38849000       1.19768000      -0.38006000
H        3.90827000       7.52789000       6.84597000       0.00000000       0.00000000       0.00000000       0.38995700      -0.87018200       0.31006900
H        4.57442000       2.55115000       6.64114000       0.00000000       0.00000000       0.00000000      -0.44653600      -1.26046000       0.06864360
O        2.03378000       6.70616000       2.65924000       0.00000000       0.00000000       0.00000000      -0.11838800       0.27576400      -0.71652500
H        2.07818000       7.06036000       3.55767000       0.00000000       0.00000000       0.00000000       0.01748690       0.19054300       0.62417700
H        1.21110000       7.08838000       2.30047000       0.00000000       0.00000000       0.00000000       0.31671800       0.23136600       0.07155560
O        5.14228000       7.74249000      25.00010000       0.00000000       0.00000000       0.00000000      -0.96673600       0.01379730       0.70387700
H        0.50874400       7.27665000      29.38450000       0.00000000       0.00000000       0.00000000       0.73786200      -0.88661800      -0.40629200
H        4.24251000       8.17659000      25.24740000       0.00000000       0.00000000       0.00000000       1.06427000      -0.59706400      -0.60354900
O        2.10917000       1.95144000       3.46843000       0.00000000       0.00000000       0.00000000      -1.93709000       0.68679100       0.03068120
H        3.07184000       1.88943000       3.54003000       0.00000000       0.00000000       0.00000000       0.46612000       0.51503500      -0.14505500
O        4.46909000       5.18699000       0.91073200       0.00000000       0.00000000       0.00000000      -0.93065900       0.12055300       0.20452300
H        5.19850000       4.64105000       0.56628700       0.00000000       0.00000000       0.00000000       0.12256400      -0.55268800       0.04356750
H        4.15901000       4.81949000       1.77014000       0.00000000       0.00000000       0.00000000       0.51825900      -0.06424900      -0.43258500
O        8.57259000       0.67214400      26.84900000       0.00000000       0.00000000       0.00000000      -0.54045500      -1.01933000       0.67670300
H        7.82174000       0.15689900      27.22010000       0.00000000       0.00000000       0.00000000       0.53492600       0.64643400      -0.17951800
H        8.40316000       1.63634000      26.95630000       0.00000000       0.00000000       0.00000000      -0.27545300       0.46854300       0.13246900
O        0.65140300       7.73892000      26.69230000       0.00000000       0.00000000       0.00000000      -0.71370300       0.24085800      -2.99115000
H        0.84519500       7.51000000      27.58150000       0.00000000       0.00000000       0.00000000       0.07869670      -0.35262100       1.53768000
H       -0.06849620       8.38981000      26.59600000       0.00000000       0.00000000       0.00000000       0.39691600      -0.28238400       0.82676700
H        1.76473000       2.87704000       3.29642000       0.00000000       0.00000000       0.00000000       0.85990900      -1.12750000       0.32165300
O        2.18128000       7.39123000       5.60499000       0.00000000       0.00000000       0.00000000       0.62104400      -0.11263400      -0.29750600
H        1.54701000       8.01886000       5.96261000       0.00000000       0.00000000       0.00000000      -0.19042200      -0.37713000       0.15091800
H        7.77572000       5.46271000       3.04355000       0.00000000       0.00000000       0.00000000      -0.02734450       0.32792000       0.00771596
O        8.30912000       5.16717000       3.80500000       0.00000000       0.00000000       0.00000000       0.14659500      -0.40031400      -0.94201700
H        8.22930000       5.87604000       4.46799000       0.00000000       0.00000000       0.00000000      -0.13820400       0.65470100       0.50321600
H        5.87598000       8.72704000      23.87690000       0.00000000       0.00000000       0.00000000      -0.83702900      -0.53929800       0.76200700
O        6.16419000       7.82064000       4.14662000       0.00000000       0.00000000       0.00000000      -0.60321900       0.40910300       0.40760500
H        6.28956000       8.57217000       3.50078000       0.00000000       0.00000000       0.00000000      -0.55788000      -0.45642500       1.42732000
H        5.41022000       7.96427000       4.78394000       0.00000000       0.00000000       0.00000000       0.89710700       0.44717500      -1.61632000
O        8.06441000       7.17827000      29.68050000       0.00000000       0.00000000       0.00000000       0.87009700       0.06664650       1.65696000
H        7.72510000       7.02100000       0.47964300       0.00000000       0.00000000       0.00000000       0.19707600       0.25225800      -1.07783000
O        0.21198100       0.32987700       1.92689000       0.00000000       0.00000000       0.00000000       0.98962500       0.64735500       1.33172000
H        9.61055000       0.78353600       2.37262000       0.00000000       0.00000000       0.00000000      -0.53403600      -0.39534200      -0.62027200
H        9.70270000       4.72280000      25.23850000       0.00000000       0.00000000       0.00000000      -0.16920600       0.60547700      -0.04917190
O       -0.02436820       4.99241000      26.07020000       0.00000000       0.00000000       0.00000000       0.22650300       0.89184700       0.40127500
H        4.19816000       5.34841000       3.81459000       0.00000000       0.00000000       0.00000000       0.51862300       0.60841300       0.60389000
H       -0.02576080       5.99808000      26.15640000       0.00000000       0.00000000       0.00000000       0.17442800      -1.19855000      -0.28093000
O        3.93091000       4.46875000       3.59475000       0.00000000       0.00000000       0.00000000      -0.88149900      -0.70185800      -0.73347800
H        0.94468200       0.74078900       2.46943000       0.00000000       0.00000000       0.00000000      -0.27932700      -0.39334300      -0.81853600
H        4.45684000       3.82701000       4.08287000       0.00000000       0.00000000       0.00000000       0.44306200       0.26109500       0.13404900
O        6.47606000       3.57144000      30.14370000       0.00000000       0.00000000       0.00000000       2.50658000       0.56737400      -0.01325210
H        6.49404000       3.42699000      29.17570000       0.00000000       0.00000000       0.00000000       0.07339370       0.14367400       0.62760700
H        7.45936000       3.82140000       0.24459200       0.00000000       0.00000000       0.00000000      -2.36863000      -0.79575400      -0.75739800
O        3.90302000       4.31852000       6.83996000       0.00000000       0.00000000       0.00000000      -0.42593500      -0.28684800       1.48908000
H        3.69332000       4.18517000       7.84494000       0.00000000       0.00000000       0.00000000       0.51603200       0.37983400      -1.73179000
H        3.64560000       7.73531000       1.70618000       0.00000000       0.00000000       0.00000000      -0.96436600      -0.47741400       0.88064800
O        4.35244000       8.35512000       1.60876000       0.00000000       0.00000000       0.00000000       1.21250000       0.54915900      -0.49088100
H        8.65591000       5.89180000       7.04979000       0.00000000       0.00000000       0.00000000       0.26650200      -0.47860600       0.26358000
O        9.11690000       5.16534000       7.54858000       0.00000000       0.00000000       0.00000000       0.70458700       0.32991400      -0.23418000
H        4.29525000       5.24837000       6.80325000       0.00000000       0.00000000       0.00000000      -0.46958300      -0.49560000       0.21646900
H        9.99281000       5.03380000       7.07649000       0.00000000       0.00000000       0.00000000      -0.80997100       0.16193600       0.31903100
O        1.47301000       1.51520000       6.30029000       0.00000000       0.00000000       0.00000000       0.35359500       0.24189200      -0.67147100