246
Lattice="10.140377177804453 0.0 0.0 0.0 8.781824239934606 0.0 0.0 0.0 30.1311271579" Properties=species:S:1:pos:R:3:std_dev_fx:R:1:std_dev_fy:R:1:std_dev_fz:R:1:momenta:R:3:forces:R:3 timestep=642200 uncertainty=0.05727026 target_atoms="0 1 2 3 4 5 6 7 8 9 10 11 12 13 14 15 16 17 18 19 20 21 22 23 24 25 26 27 28 29 30 31 32 33 34 35 36 37 38 39 40 41 42 43 44 45 46 47 48 49 50 51 52 53 54 55 56 57 58 59 60 61 62 63 64 65 66 67 68 69 70 71 72 73 74 75 76 77 78 79 80 81 82 83 84 85 86 87 88 89 90 91 92 93 94 95 96 97 98 99 100 101 102 103 104 105 106 107 108 109 110 111 112 113 114 115 116 117 118 119 120 121 122 123 124 125 126 127 128 129 130 131 132 133 134 135 136 137 138 139 140 141 142 143 144 145 146 147 148 149 150 151 152 153 154 155 156 157 158 159 160 161 162 163 164 165 166 167 168 169 170 171 172 173 174 175 176 177 178 179 180 181 182 183 184 185 186 187 188 189 190 191 192 193 194 195 196 197 198 199 200 201 202 203 204 205 206 207 208 209 210 211 212 213 214 215 216 217 218 219 220 221 222 223 224 225 226 227 228 229 230 231 232 233 234 235 236 237 238 239 240 241 242 243 244 245" step=0 energy=-1815.509521484375 free_energy=-1815.509521484375 stress="0.0009997886372730136 0.00039546171319670975 -8.525716111762449e-06 0.00039546171319670975 0.0054157814010977745 -0.0023893979378044605 -8.525716111762449e-06 -0.0023893979378044605 -0.0018637117464095354" pbc="T T T"
Cu       7.05946000       1.08241000       9.89082000       0.00588630       0.00991579       0.01166628       0.00000000       0.00000000       0.00000000       0.30762053      -0.25742555       0.28798217
Cu       9.63994000       0.95746500       9.89738000       0.00497245       0.00769732       0.02594214       0.00000000       0.00000000       0.00000000      -0.08337863       0.48572442      -0.06298280
Cu       2.01687000       0.99405500      10.05300000       0.00540975       0.00440316       0.01279841       0.00000000       0.00000000       0.00000000      -0.06202653       0.16157466      -0.84350502
Cu       4.53732000       1.08363000       9.98323000       0.00475687       0.00393379       0.02123291       0.00000000       0.00000000       0.00000000      -0.03400229      -0.01307301      -0.64095324
Cu       8.35207000       3.17334000       9.87966000       0.01525657       0.00615906       0.00991137       0.00000000       0.00000000       0.00000000       0.16463594       0.13313261       0.53922570
Cu       0.80023000       3.26171000      10.03050000       0.01260680       0.01180408       0.00756934       0.00000000       0.00000000       0.00000000      -0.66244227      -0.18750204      -0.34812319
Cu       3.18511000       3.29338000       9.90435000       0.00759028       0.00753085       0.01277901       0.00000000       0.00000000       0.00000000       0.50434667      -0.06420767       0.24685097
Cu       5.88270000       3.32229000       9.98728000       0.00685340       0.00488221       0.01321112       0.00000000       0.00000000       0.00000000      -0.41525158      -0.47664672       0.10860530
Cu       9.52959000       5.38063000       9.90399000       0.00730958       0.00443993       0.01171483       0.00000000       0.00000000       0.00000000       0.28950620       0.13907853       0.14334992
Cu       1.89662000       5.42490000       9.88491000       0.00590168       0.00446070       0.02344787       0.00000000       0.00000000       0.00000000       0.24641487       0.05672257      -0.03810240
Cu       4.51501000       5.49486000      10.06790000       0.00448440       0.00454491       0.01165887       0.00000000       0.00000000       0.00000000      -0.20059820      -0.33393207      -0.83468527
Cu       7.09037000       5.41357000       9.77123000       0.01098021       0.00515729       0.01557555       0.00000000       0.00000000       0.00000000      -0.11891031       0.22893274       0.13247235
Cu       0.68442600       7.53198000       9.87968000       0.00344845       0.00641091       0.01777558       0.00000000       0.00000000       0.00000000       0.06433060       0.47955316       0.13127427
Cu       3.19202000       7.55957000       9.94714000       0.00317360       0.00939640       0.00605956       0.00000000       0.00000000       0.00000000       0.00280664       0.33490860      -0.02875844
Cu       5.74103000       7.65170000      10.13620000       0.00736332       0.00538341       0.01318969       0.00000000       0.00000000       0.00000000       0.24692899      -0.30405653      -1.31124997
Cu       8.36778000       7.64494000       9.88783000       0.00338777       0.00276190       0.01190654       0.00000000       0.00000000       0.00000000      -0.31810820      -0.12875435       0.07216001
Cu       5.85219000       1.69651000      11.96360000       0.00632939       0.00236832       0.00230755       0.00000000       0.00000000       0.00000000      -0.17665678       0.29785359       0.01087088
Cu       8.40705000       1.82153000      12.01270000       0.00211375       0.00423398       0.00567509       0.00000000       0.00000000       0.00000000      -0.57437181       0.13060179      -0.43970513
Cu       0.78224700       1.78263000      11.91020000       0.00191439       0.00512010       0.00500192       0.00000000       0.00000000       0.00000000      -0.37906310       0.56125164       0.71790314
Cu       3.31438000       1.81960000      11.98790000       0.00433113       0.00081343       0.00652714       0.00000000       0.00000000       0.00000000      -0.12534893      -0.08125965      -0.03399349
Cu       7.11359000       3.99563000      12.01450000       0.00489749       0.00391209       0.00258606       0.00000000       0.00000000       0.00000000      -0.04111845      -0.48870021      -0.43303561
Cu       9.58743000       4.02752000      11.99790000       0.00146407       0.00150328       0.00417870       0.00000000       0.00000000       0.00000000       0.17699531      -0.05795459      -0.20675394
Cu       2.01177000       4.10075000      12.00920000       0.00215883       0.00241350       0.00400333       0.00000000       0.00000000       0.00000000      -0.45417228      -0.76722765      -0.10440509
Cu       4.52244000       3.93984000      11.91920000       0.00342084       0.00214188       0.00597574       0.00000000       0.00000000       0.00000000       0.00285883      -0.22839811       0.40266857
Cu       8.29533000       6.19052000      11.97940000       0.00523289       0.00573728       0.00764887       0.00000000       0.00000000       0.00000000       0.19423242       0.00851029      -0.38284075
Cu       0.68718500       6.29081000      11.99050000       0.00180257       0.00578031       0.00686774       0.00000000       0.00000000       0.00000000      -0.20760053      -0.21416095      -0.15610942
Cu       3.17587000       6.13470000      11.91750000       0.00221749       0.00260094       0.00710983       0.00000000       0.00000000       0.00000000       0.18284407       0.50703424       0.63611084
Cu       5.82892000       5.97564000      11.98060000       0.00423170       0.00200977       0.00740852       0.00000000       0.00000000       0.00000000      -0.08028755       1.10441029       0.04207642
Cu       9.53623000       8.52232000      11.97620000       0.00568408       0.00726469       0.00729694       0.00000000       0.00000000       0.00000000       0.32248223      -1.03165352       0.02789758
Cu       1.99886000       8.47863000      11.99200000       0.00488347       0.00480980       0.00733551       0.00000000       0.00000000       0.00000000      -0.16489464      -0.90924263       0.16036750
Cu       4.49450000       8.21906000      11.98480000       0.00315035       0.00360729       0.00422458       0.00000000       0.00000000       0.00000000      -0.20544703       0.82245559       0.32531869
Cu       7.05374000       8.28866000      11.90110000       0.00209702       0.00424579       0.00610787       0.00000000       0.00000000       0.00000000       0.22213365       0.54251945       0.77092451
Cu       5.70396000       0.36590900      14.03060000       0.00153855       0.00099414       0.00272154       0.00000000       0.00000000       0.00000000       0.04004817      -0.12743558       0.00156279
Cu       8.23906000       0.36590900      14.03060000       0.00265289       0.00275415       0.00939999       0.00000000       0.00000000       0.00000000      -0.12020589      -0.05425868       0.00501452
Cu       0.63377400       0.36590900      14.03060000       0.00029094       0.00085776       0.00751945       0.00000000       0.00000000       0.00000000       0.06706326       0.04136621       0.05580353
Cu       3.16887000       0.36590900      14.03060000       0.00308476       0.00118692       0.00575956       0.00000000       0.00000000       0.00000000       0.14390042       0.00051634       0.17805389
Cu       6.97151000       2.56137000      14.03060000       0.00188411       0.00240651       0.00284818       0.00000000       0.00000000       0.00000000       0.02607352      -0.08126874       0.04856755
Cu       9.50660000       2.56137000      14.03060000       0.00113425       0.00089369       0.00584101       0.00000000       0.00000000       0.00000000       0.21436107       0.02921477       0.15726280
Cu       1.90132000       2.56137000      14.03060000       0.00183096       0.00123826       0.00496563       0.00000000       0.00000000       0.00000000       0.06431002      -0.01203785      -0.05781844
Cu       4.43642000       2.56137000      14.03060000       0.00272526       0.00125644       0.00688588       0.00000000       0.00000000       0.00000000       0.16578549       0.01346959       0.10838871
Cu       8.23906000       4.75682000      14.03060000       0.00240322       0.00301810       0.00380739       0.00000000       0.00000000       0.00000000       0.12245828       0.03715184       0.27106833
Cu       0.63377400       4.75682000      14.03060000       0.00243184       0.00256862       0.00950451       0.00000000       0.00000000       0.00000000       0.06346031       0.07020058       0.10659762
Cu       3.16887000       4.75682000      14.03060000       0.00296594       0.00074778       0.00851111       0.00000000       0.00000000       0.00000000       0.22560555       0.00236596       0.15290333
Cu       5.70396000       4.75682000      14.03060000       0.00133764       0.00142556       0.00472954       0.00000000       0.00000000       0.00000000      -0.02461766      -0.24710439       0.30032444
Cu       9.50660000       6.95228000      14.03060000       0.00185634       0.00136812       0.00712660       0.00000000       0.00000000       0.00000000      -0.00774709       0.06281683      -0.01239540
Cu       1.90132000       6.95228000      14.03060000       0.00213456       0.00054527       0.01036039       0.00000000       0.00000000       0.00000000       0.14258632       0.02737992       0.02455548
Cu       4.43642000       6.95228000      14.03060000       0.00286796       0.00400286       0.00544238       0.00000000       0.00000000       0.00000000       0.03338563      -0.22813290       0.08403615
Cu       6.97151000       6.95228000      14.03060000       0.00449410       0.00202610       0.00666197       0.00000000       0.00000000       0.00000000      -0.02009688       0.00460280       0.00746522
Cu       6.97151000       1.09773000      16.10050000       0.00101082       0.00234713       0.00570324       0.00000000       0.00000000       0.00000000       0.12946451      -0.06959578      -0.18156597
Cu       9.50660000       1.09773000      16.10050000       0.00101108       0.00178122       0.00952186       0.00000000       0.00000000       0.00000000      -0.06122348      -0.02381118       0.06450824
Cu       1.90132000       1.09773000      16.10050000       0.00249000       0.00187401       0.01030683       0.00000000       0.00000000       0.00000000       0.13571851      -0.06260750      -0.12042309
Cu       4.43642000       1.09773000      16.10050000       0.00166079       0.00192987       0.01043811       0.00000000       0.00000000       0.00000000      -0.16014218      -0.12713107      -0.08817947
Cu       8.23906000       3.29318000      16.10050000       0.00148889       0.00076780       0.00553732       0.00000000       0.00000000       0.00000000       0.23137623      -0.06009101      -0.05884480
Cu       0.63377400       3.29318000      16.10050000       0.00081929       0.00128322       0.01014079       0.00000000       0.00000000       0.00000000       0.05912036      -0.01698527       0.14270908
Cu       3.16887000       3.29318000      16.10050000       0.00126410       0.00217319       0.00932129       0.00000000       0.00000000       0.00000000      -0.01823733      -0.06288004       0.03488678
Cu       5.70396000       3.29318000      16.10050000       0.00377233       0.00252237       0.00665372       0.00000000       0.00000000       0.00000000       0.13932237      -0.23854595      -0.48462322
Cu       9.50660000       5.48864000      16.10050000       0.00275792       0.00142972       0.01177686       0.00000000       0.00000000       0.00000000       0.03459353       0.00056128       0.35255837
Cu       1.90132000       5.48864000      16.10050000       0.00121241       0.00130131       0.01190366       0.00000000       0.00000000       0.00000000       0.04293876      -0.05746481       0.08408006
Cu       4.43642000       5.48864000      16.10050000       0.00162792       0.00212105       0.00693522       0.00000000       0.00000000       0.00000000       0.05434030      -0.06310763      -0.13521595
Cu       6.97151000       5.48864000      16.10050000       0.00349796       0.00251730       0.00692336       0.00000000       0.00000000       0.00000000       0.18844444       0.17228590      -0.05243942
Cu       0.63377400       7.68410000      16.10050000       0.00120981       0.00090558       0.00867827       0.00000000       0.00000000       0.00000000      -0.00705463      -0.12935859       0.12484449
Cu       3.16887000       7.68410000      16.10050000       0.00114350       0.00188108       0.00704275       0.00000000       0.00000000       0.00000000       0.06796400       0.00053083      -0.19910040
Cu       5.70396000       7.68410000      16.10050000       0.00161933       0.00067469       0.00677874       0.00000000       0.00000000       0.00000000      -0.00508724       0.07451281       0.08679588
Cu       8.23906000       7.68410000      16.10050000       0.00170228       0.00102781       0.00762308       0.00000000       0.00000000       0.00000000       0.06215758      -0.11485167       0.19191638
Cu       5.68390000       1.64709000      18.10110000       0.00386864       0.00324535       0.00589441       0.00000000       0.00000000       0.00000000      -0.01136736       0.80106091       0.49195862
Cu       8.19502000       1.83956000      18.19250000       0.00319545       0.00218744       0.00549752       0.00000000       0.00000000       0.00000000       0.44485044      -0.35258141      -0.21776894
Cu       0.71955700       1.69804000      18.13490000       0.00479524       0.00191686       0.00528038       0.00000000       0.00000000       0.00000000      -0.24228613       0.57195055       0.39644560
Cu       3.20096000       1.79375000      18.20720000       0.00428703       0.00457040       0.00571258       0.00000000       0.00000000       0.00000000       0.08768266       0.02192467       0.10624310
Cu       6.98767000       4.00623000      18.05430000       0.00234248       0.00385629       0.00287136       0.00000000       0.00000000       0.00000000       0.52904433       0.04811074       0.79538691
Cu       9.62865000       3.93516000      18.23540000       0.00435528       0.00369324       0.00658081       0.00000000       0.00000000       0.00000000      -0.27760616       0.20890316      -0.10298119
Cu       1.99121000       3.97946000      18.20950000       0.00408173       0.00097886       0.00717766       0.00000000       0.00000000       0.00000000       0.24071616      -0.27401990       0.09891813
Cu       4.58386000       3.90766000      18.08790000       0.00606047       0.00461353       0.00265479       0.00000000       0.00000000       0.00000000      -0.88678879       0.25403333       0.70889544
Cu       8.41082000       6.15616000      18.34090000       0.00470186       0.00746798       0.01431138       0.00000000       0.00000000       0.00000000      -0.30373630       0.01414631      -0.61622643
Cu       0.82031800       6.06466000      18.27220000       0.00275862       0.00443063       0.00617069       0.00000000       0.00000000       0.00000000      -0.82540619       0.50056672      -0.78259510
Cu       3.27816000       6.24938000      18.13650000       0.00081673       0.00807647       0.00519110       0.00000000       0.00000000       0.00000000      -0.19198236      -1.00514495       0.19664173
Cu       5.73036000       6.20020000      18.13240000       0.00178773       0.00338127       0.00408510       0.00000000       0.00000000       0.00000000       0.45820487       0.00713577       0.17130589
Cu       9.60128000       8.39278000      18.18750000       0.00664664       0.00291262       0.00548118       0.00000000       0.00000000       0.00000000      -0.50820804      -0.18057075      -0.02173268
Cu       1.97663000       8.35563000      18.15190000       0.00409546       0.00298971       0.00871323       0.00000000       0.00000000       0.00000000      -0.30676949      -0.00938143       0.02446586
Cu       4.38881000       8.32275000      18.23280000       0.00385467       0.00636683       0.00997095       0.00000000       0.00000000       0.00000000       0.67095208       0.39605671      -0.21252277
Cu       7.00260000       8.41029000      18.17390000       0.00353336       0.00429719       0.00540352       0.00000000       0.00000000       0.00000000       0.43481585      -0.58156270      -0.04024836
Cu       5.81437000       0.29851800      20.16420000       0.01056956       0.00532398       0.00511303       0.00000000       0.00000000       0.00000000      -0.69636095      -0.02635511       0.31891569
Cu       8.26510000       0.33677200      20.27490000       0.00663369       0.00522655       0.03130894       0.00000000       0.00000000       0.00000000       0.42712885      -0.29099506      -0.03091273
Cu       0.74757600       0.19764700      20.22180000       0.00777501       0.00938687       0.01513262       0.00000000       0.00000000       0.00000000       0.24587946       1.00194776      -0.04263469
Cu       3.21199000       0.27935500      20.24680000       0.00437857       0.00365622       0.02011524       0.00000000       0.00000000       0.00000000       0.23786776       0.03142766       0.09046847
Cu       6.96707000       2.47532000      20.18960000       0.00516131       0.00384381       0.00947902       0.00000000       0.00000000       0.00000000      -0.18208978       0.23040405      -0.07636222
Cu       9.54211000       2.43885000      20.15920000       0.00384352       0.00364954       0.01285789       0.00000000       0.00000000       0.00000000       0.41279835       0.14756954       0.22073829
Cu       1.95355000       2.47610000      20.32610000       0.00838184       0.00607470       0.01131404       0.00000000       0.00000000       0.00000000      -0.16608268       0.00567219      -0.37166339
Cu       4.44957000       2.52218000      20.42270000       0.00435584       0.00512474       0.01378013       0.00000000       0.00000000       0.00000000       0.27406383      -0.38836884      -0.64684016
Cu       8.26899000       4.56968000      20.29570000       0.00356723       0.01031224       0.01470719       0.00000000       0.00000000       0.00000000       0.24716596       0.38387415      -0.26323918
Cu       0.79984000       4.77077000      20.36190000       0.01188496       0.00331160       0.01121970       0.00000000       0.00000000       0.00000000      -0.48228556      -0.80003083      -0.16491058
Cu       3.28365000       4.63010000      20.35680000       0.00354915       0.00876219       0.02358582       0.00000000       0.00000000       0.00000000      -0.14387010       0.13358156      -0.73647189
Cu       5.75888000       4.69393000      20.12030000       0.00764022       0.00647574       0.01647721       0.00000000       0.00000000       0.00000000       0.13760436      -0.35925364       0.13262464
Cu       9.74985000       6.97563000      20.23490000       0.01366283       0.01116200       0.02256951       0.00000000       0.00000000       0.00000000      -0.83125889      -0.76117826      -0.07386014
Cu       1.99629000       6.81969000      20.17380000       0.00252900       0.01222308       0.00488186       0.00000000       0.00000000       0.00000000       0.88138366       0.45356351       0.53594339
Cu       4.56569000       6.77601000      20.26960000       0.00285926       0.00598087       0.01328507       0.00000000       0.00000000       0.00000000      -0.40525410       0.59863234      -0.13092530
Cu       7.02747000       6.89211000      20.20160000       0.01465677       0.00440365       0.02402903       0.00000000       0.00000000       0.00000000       0.15746124      -0.22014455       0.02633894
O        5.42383000       3.21191000       1.20960000       0.00778974       0.00429120       0.01230969       0.00000000       0.00000000       0.00000000       1.96859324      -0.52184302       0.24150431
H        6.36754000       2.88321000       1.17759000       0.00882326       0.00578790       0.00744661       0.00000000       0.00000000       0.00000000      -1.28325403       0.22932483       0.30055863
H        5.18819000       3.10099000       0.28279000       0.00264880       0.00218983       0.00433989       0.00000000       0.00000000       0.00000000      -0.76643986      -0.15206388      -0.58037388
O        5.48004000       8.20957000       1.84478000       0.00488878       0.00551575       0.01819819       0.00000000       0.00000000       0.00000000       0.77745175      -1.10076165      -0.86613631
H        5.64431000       7.21645000       1.82090000       0.00115665       0.00416967       0.00721304       0.00000000       0.00000000       0.00000000       0.38385683       0.62365735      -0.34999126
H        4.94190000       8.24104000       2.61835000       0.00394283       0.00505337       0.01064797       0.00000000       0.00000000       0.00000000      -0.96727037       0.37714121       1.26073921
O        5.19063000       5.56594000      26.63430000       0.00944118       0.01450943       0.02326549       0.00000000       0.00000000       0.00000000       1.41523421      -0.27631304      -0.16830100
H        1.22847000       6.72704000      24.67250000       0.00125496       0.01538740       0.01646998       0.00000000       0.00000000       0.00000000       0.21950579      -1.51749468       0.87435734
H        4.44087000       6.05069000      26.98160000       0.00653445       0.00901661       0.01325904       0.00000000       0.00000000       0.00000000      -0.89391291       0.40734243       0.18414183
O        4.13369000       0.58107800      23.60590000       0.00423677       0.00529208       0.02731619       0.00000000       0.00000000       0.00000000      -0.05880329      -0.01341721       1.52259016
H        4.70572000       0.59320500      22.83420000       0.00477229       0.00043961       0.03557259       0.00000000       0.00000000       0.00000000       0.42849138      -0.12078322       0.09517395
H        4.65781000       0.39830100      24.44550000       0.00183323       0.00236530       0.02037914       0.00000000       0.00000000       0.00000000      -0.35601085       0.21239004      -1.58074641
O        8.11649000       7.47162000      29.01470000       0.01780528       0.00889787       0.00414802       0.00000000       0.00000000       0.00000000      -0.81515759       0.26787063      -0.50939560
H        8.46009000       7.73871000      29.89060000       0.00933813       0.01672918       0.01180519       0.00000000       0.00000000       0.00000000      -0.64285362      -0.17287049      -0.33528888
H        7.18058000       7.83504000      28.92070000       0.00746973       0.00698338       0.00205173       0.00000000       0.00000000       0.00000000       1.82062721      -0.24332994       0.67015284
O        2.33072000       2.75411000      23.70670000       0.01480962       0.00604836       0.03410099       0.00000000       0.00000000       0.00000000      -0.26980150       0.69389468      -0.52816975
H        6.20978000       4.33725000       7.28103000       0.01271881       0.01172897       0.02494799       0.00000000       0.00000000       0.00000000      -0.60922372      -1.73327422      -0.50555110
H        1.75503000       2.71805000      22.91280000       0.00686379       0.00475052       0.02918095       0.00000000       0.00000000       0.00000000       0.46473002      -0.18562791       0.45722675
O        7.60283000       0.95981600       2.90213000       0.00772212       0.00320299       0.01841914       0.00000000       0.00000000       0.00000000      -0.97152215      -1.38538456      -0.34663570
H        9.28519000       6.17725000       0.76213600       0.00574407       0.00251292       0.00667418       0.00000000       0.00000000       0.00000000       0.35134435      -0.37067115      -0.08590131
H        6.84529000       0.28219700       2.73611000       0.00946711       0.00871212       0.01070629       0.00000000       0.00000000       0.00000000       1.19436812       1.49383497       0.08601736
O        6.53659000       5.13201000       7.68190000       0.01584526       0.01509153       0.03603647       0.00000000       0.00000000       0.00000000       1.24250340       1.85376096       0.97169280
H        6.90501000       6.12230000       3.79744000       0.00336211       0.00487294       0.01491904       0.00000000       0.00000000       0.00000000       0.11574519      -0.05747022       0.06337743
H        5.87811000       5.77587000       7.43471000       0.01575891       0.01433141       0.01337227       0.00000000       0.00000000       0.00000000      -0.31430772       0.60577184      -0.04928848
O        3.79282000       1.96036000       3.97329000       0.00439222       0.00764915       0.01357944       0.00000000       0.00000000       0.00000000      -0.81910419      -0.53614902       0.29534650
H        4.32933000       2.55062000       3.44426000       0.00318043       0.00308873       0.00569557       0.00000000       0.00000000       0.00000000       0.47371733       0.06254522      -0.13066973
H        7.51657000       8.81870000       6.09024000       0.00519748       0.00363396       0.01228763       0.00000000       0.00000000       0.00000000       0.71613556      -0.07276773      -0.19677736
O        6.67976000       0.18023100       6.51663000       0.01422959       0.01515489       0.01116470       0.00000000       0.00000000       0.00000000      -0.78547043      -0.06034284      -1.41116774
H        6.86786000       0.28415500       7.43112000       0.01212832       0.00913367       0.02032560       0.00000000       0.00000000       0.00000000       0.35115749       0.09817018       1.59772110
H        2.22279000       6.55260000      26.74780000       0.00414587       0.00526324       0.01095347       0.00000000       0.00000000       0.00000000      -1.37942755      -0.77238131      -2.28442383
O        7.10086000       5.99291000       4.74503000       0.00393019       0.00657017       0.02340586       0.00000000       0.00000000       0.00000000      -0.30728507       1.12255669      -0.69985306
H        6.85473000       5.09047000       4.87726000       0.00232515       0.00630926       0.00754767       0.00000000       0.00000000       0.00000000      -0.12802720      -1.13557804       0.34364504
H        4.14916000       7.81082000       5.28304000       0.01514935       0.00662235       0.01860382       0.00000000       0.00000000       0.00000000       0.29956397       0.50757694      -0.82566279
O        4.21842000       2.89277000      28.69540000       0.01354369       0.01274019       0.00939210       0.00000000       0.00000000       0.00000000      -0.30827188      -0.27242613       0.35562831
H        4.84650000       3.36458000      28.15390000       0.00568963       0.00788868       0.00792835       0.00000000       0.00000000       0.00000000       0.30016941      -0.03811188      -0.71822250
H        3.87895000       2.05792000      28.24070000       0.01380757       0.01980205       0.01409097       0.00000000       0.00000000       0.00000000       0.60863173       0.43758613       0.18025896
O        8.86483000       6.76175000       1.40468000       0.01183337       0.00854685       0.00967857       0.00000000       0.00000000       0.00000000      -0.44068629       0.08025937      -0.25596207
H        3.04866000       2.09992000      23.59950000       0.00733435       0.01017967       0.02078592       0.00000000       0.00000000       0.00000000      -0.02247991      -0.35098445      -0.21996233
H        9.49586000       6.94326000       2.10222000       0.00671175       0.00705039       0.00534979       0.00000000       0.00000000       0.00000000       0.33848035       0.05875614       0.35093409
O        2.11149000       2.31233000       6.45000000       0.01045449       0.01249563       0.01847634       0.00000000       0.00000000       0.00000000       0.90197170      -0.46024501      -1.56999135
H        2.54201000       1.94885000       5.60556000       0.00894450       0.01392659       0.02095494       0.00000000       0.00000000       0.00000000      -0.94044095       0.78589427       1.41241479
H        2.40038000       3.24554000       6.43980000       0.00443335       0.00908026       0.00823490       0.00000000       0.00000000       0.00000000       0.03455784       0.01369742       0.23660932