246
Lattice="10.140377178 0.0 0.0 0.0 8.78182424 0.0 0.0 0.0 30.131127158" Properties=species:S:1:pos:R:3:initial_charges:R:1:forces:R:3 NELECT0=1456.0 NELECT=1456.0 stress="0.009653504987656852 0.0006413462702301342 0.0001403590572228627 0.0006413462702301342 0.013602095872000883 -0.0015931139968360722 0.0001403590572228627 -0.0015931139968360722 0.0050647662028348575" free_energy=-1811.62801722 energy=-1811.5148316 pbc="T T T"
Cu       7.05946000       1.08241000       9.89082000      -0.07275400       0.33322700      -0.26472000       0.29187300
Cu       9.63994000       0.95746000       9.89738000      -0.02555300      -0.10746500       0.49798700      -0.08615300
Cu       2.01687000       0.99405000      10.05300000      -0.05286700      -0.05268500       0.18848100      -0.83109200
Cu       4.53732000       1.08363000       9.98323000       0.15253500      -0.04350900       0.00375500      -0.62043100
Cu       8.35207000       3.17334000       9.87966000      -0.04619100       0.18348200       0.13423800       0.54851100
Cu       0.80023000       3.26171000      10.03050000      -0.06687100      -0.65919700      -0.15492700      -0.31862300
Cu       3.18511000       3.29338000       9.90435000       0.01308400       0.51491300      -0.05536400       0.28532400
Cu       5.88270000       3.32229000       9.98728000      -0.00391700      -0.42343900      -0.47089000       0.10391700
Cu       9.52959000       5.38063000       9.90399000      -0.03531600       0.29121400       0.13458700       0.14639400
Cu       1.89662000       5.42490000       9.88491000       0.00546600       0.27441400       0.08147300      -0.02216500
Cu       4.51501000       5.49486000      10.06790000      -0.04785200      -0.22241400      -0.30412200      -0.81524900
Cu       7.09037000       5.41357000       9.77123000       0.16949000      -0.11983200       0.24033500       0.13906100
Cu       0.68443000       7.53198000       9.87968000      -0.02340400       0.06142100       0.49555100       0.12985400
Cu       3.19202000       7.55957000       9.94714000      -0.06117500      -0.00219800       0.32356100      -0.00583000
Cu       5.74103000       7.65170000      10.13620000      -0.07260000       0.27220400      -0.29286100      -1.31676500
Cu       8.36778000       7.64494000       9.88783000      -0.08311200      -0.31363800      -0.10288000       0.06835500
Cu       5.85219000       1.69651000      11.96360000       0.02775600      -0.18516400       0.31306600       0.00341900
Cu       8.40705000       1.82153000      12.01270000       0.01889700      -0.57351600       0.13340500      -0.42103500
Cu       0.78225000       1.78263000      11.91020000       0.01697000      -0.38630900       0.55001300       0.73672500
Cu       3.31438000       1.81960000      11.98790000       0.02172400      -0.13578900      -0.07252400      -0.04348400
Cu       7.11359000       3.99563000      12.01450000       0.01685200      -0.04968500      -0.48173200      -0.43901200
Cu       9.58743000       4.02752000      11.99790000       0.03003800       0.16760700      -0.05608300      -0.19695700
Cu       2.01177000       4.10075000      12.00920000       0.01931500      -0.45628000      -0.75808200      -0.10647400
Cu       4.52244000       3.93984000      11.91920000       0.01947800       0.01960700      -0.21127600       0.39406900
Cu       8.29533000       6.19052000      11.97940000       0.02405900       0.20333200       0.01919900      -0.38703700
Cu       0.68718000       6.29081000      11.99050000       0.02502400      -0.20914400      -0.20910300      -0.13197500
Cu       3.17587000       6.13470000      11.91750000       0.02723500       0.17514600       0.49982500       0.66712700
Cu       5.82892000       5.97564000      11.98060000       0.02467100      -0.07293200       1.11360800       0.00964200
Cu       9.53623000       8.52232000      11.97620000       0.01108000       0.31894900      -1.01231300       0.04407600
Cu       1.99886000       8.47863000      11.99200000       0.02472300      -0.17024400      -0.90988100       0.16709200
Cu       4.49450000       8.21906000      11.98480000       0.02891500      -0.20764700       0.82945000       0.33358700
Cu       7.05374000       8.28866000      11.90110000       0.01193800       0.22039200       0.54865200       0.75295100
Cu       5.70396000       0.36591000      14.03060000      -0.02504300       0.04483900      -0.15853500       0.00472800
Cu       8.23906000       0.36591000      14.03060000       0.00643000      -0.13429400      -0.07756700       0.02124900
Cu       0.63377000       0.36591000      14.03060000       0.03398400       0.08115900       0.00289600       0.05712300
Cu       3.16887000       0.36591000      14.03060000      -0.00350400       0.14473800      -0.01462800       0.19352600
Cu       6.97151000       2.56137000      14.03060000      -0.00041600       0.04304300      -0.09604800       0.03142700
Cu       9.50660000       2.56137000      14.03060000       0.00933100       0.23293600       0.01171500       0.15556700
Cu       1.90132000       2.56137000      14.03060000       0.00438200       0.06610300      -0.03720000      -0.06602000
Cu       4.43642000       2.56137000      14.03060000      -0.00563800       0.15318600      -0.00690000       0.10866500
Cu       8.23906000       4.75682000      14.03060000       0.02877600       0.11472800       0.01407200       0.25935100
Cu       0.63377000       4.75682000      14.03060000       0.00775800       0.05221300       0.04815400       0.10109900
Cu       3.16887000       4.75682000      14.03060000       0.00259200       0.23728200      -0.02801100       0.17313900
Cu       5.70396000       4.75682000      14.03060000      -0.02182300      -0.01528600      -0.26755200       0.29177500
Cu       9.50660000       6.95228000      14.03060000       0.03277800       0.00250500       0.04750500      -0.02022100
Cu       1.90132000       6.95228000      14.03060000       0.00712800       0.13824900       0.01869700       0.02307600
Cu       4.43642000       6.95228000      14.03060000      -0.02303500       0.02000400      -0.24724400       0.07572500
Cu       6.97151000       6.95228000      14.03060000       0.00485400      -0.01047900      -0.01399100       0.01092100
Cu       6.97151000       1.09773000      16.10050000       0.00204300       0.11270600      -0.03817200      -0.17343000
Cu       9.50660000       1.09773000      16.10050000       0.03226000      -0.04993800       0.00475400       0.02944900
Cu       1.90132000       1.09773000      16.10050000      -0.02267400       0.13063600      -0.02174900      -0.11668100
Cu       4.43642000       1.09773000      16.10050000       0.00970100      -0.15300000      -0.08982400      -0.11071800
Cu       8.23906000       3.29318000      16.10050000      -0.00225700       0.21886900      -0.02615200      -0.06349000
Cu       0.63377000       3.29318000      16.10050000       0.00340200       0.06420000      -0.00031400       0.14423200
Cu       3.16887000       3.29318000      16.10050000       0.00389400      -0.02570000      -0.04591900       0.03666700
Cu       5.70396000       3.29318000      16.10050000       0.00264200       0.16044200      -0.20412800      -0.48201600
Cu       9.50660000       5.48864000      16.10050000       0.02164500       0.04952200       0.03069100       0.35852100
Cu       1.90132000       5.48864000      16.10050000       0.00436400       0.03465800      -0.02548700       0.07291300
Cu       4.43642000       5.48864000      16.10050000      -0.02015100       0.08044800      -0.03769600      -0.13524100
Cu       6.97151000       5.48864000      16.10050000       0.00528300       0.16279500       0.19287800      -0.07099000
Cu       0.63377000       7.68410000      16.10050000       0.00571800      -0.00307800      -0.12448500       0.12841800
Cu       3.16887000       7.68410000      16.10050000      -0.01967100       0.06175900       0.02658700      -0.21149900
Cu       5.70396000       7.68410000      16.10050000       0.00538800      -0.00034700       0.09763000       0.09318500
Cu       8.23906000       7.68410000      16.10050000       0.01920000       0.05320800      -0.09474400       0.21650900
Cu       5.68390000       1.64709000      18.10110000       0.01420000       0.00010600       0.77948200       0.48501300
Cu       8.19502000       1.83956000      18.19250000       0.02829400       0.45068900      -0.37191300      -0.23068300
Cu       0.71956000       1.69804000      18.13490000       0.01041400      -0.24884300       0.56802300       0.39796600
Cu       3.20096000       1.79375000      18.20720000       0.02088200       0.08199800       0.00124900       0.11070900
Cu       6.98767000       4.00623000      18.05430000       0.01892200       0.51981400       0.02127700       0.81362700
Cu       9.62865000       3.93516000      18.23540000       0.02971900      -0.25800900       0.19901200      -0.10069300
Cu       1.99121000       3.97946000      18.20950000       0.01893200       0.23846900      -0.27601900       0.09128100
Cu       4.58386000       3.90766000      18.08790000       0.02364600      -0.90891300       0.24193000       0.69975000
Cu       8.41082000       6.15616000      18.34090000       0.00908600      -0.31027100       0.00066400      -0.60462800
Cu       0.82032000       6.06466000      18.27220000       0.02024600      -0.81837200       0.48331900      -0.79949800
Cu       3.27816000       6.24938000      18.13650000       0.01090500      -0.20340500      -1.03912900       0.18032700
Cu       5.73036000       6.20020000      18.13240000       0.02558100       0.44613700       0.00944600       0.18546500
Cu       9.60128000       8.39278000      18.18750000       0.03699200      -0.50629400      -0.18367900      -0.02241800
Cu       1.97663000       8.35563000      18.15190000       0.01398600      -0.31254800      -0.02872700      -0.00350200
Cu       4.38881000       8.32275000      18.23280000       0.02296000       0.67258700       0.39148300      -0.23496600
Cu       7.00260000       8.41029000      18.17390000       0.01834200       0.43022900      -0.58621900      -0.03939000
Cu       5.81437000       0.29852000      20.16420000      -0.08771800      -0.71577200      -0.02738400       0.31390000
Cu       8.26510000       0.33677000      20.27490000       0.14526600       0.42531300      -0.29590400      -0.06377100
Cu       0.74758000       0.19765000      20.22180000      -0.02385500       0.27135300       1.00642600      -0.04227500
Cu       3.21199000       0.27935000      20.24680000      -0.03517900       0.24100700       0.01029200       0.11280700
Cu       6.96707000       2.47532000      20.18960000      -0.05238600      -0.20608300       0.21240500      -0.07852500
Cu       9.54211000       2.43885000      20.15920000      -0.04093300       0.41858300       0.13058600       0.20709300
Cu       1.95355000       2.47610000      20.32610000      -0.07493700      -0.18072100       0.00127600      -0.42617800
Cu       4.44957000       2.52218000      20.42270000      -0.01495500       0.29150500      -0.40411400      -0.64590700
Cu       8.26899000       4.56968000      20.29570000       0.06374800       0.23572500       0.37507400      -0.28277600
Cu       0.79984000       4.77077000      20.36190000      -0.01868000      -0.48001500      -0.82041400      -0.18471000
Cu       3.28365000       4.63010000      20.35680000      -0.02837100      -0.14077700       0.13411800      -0.76324100
Cu       5.75888000       4.69393000      20.12030000      -0.03831700       0.13897400      -0.37644200       0.15296200
Cu       9.74985000       6.97563000      20.23490000       0.01455400      -0.81435300      -0.79158300      -0.07708000
Cu       1.99629000       6.81969000      20.17380000      -0.08727500       0.87041200       0.43946700       0.49846600
Cu       4.56569000       6.77601000      20.26960000      -0.03760800      -0.40968100       0.59176700      -0.15348300
Cu       7.02747000       6.89211000      20.20160000       0.05461100       0.14511500      -0.23849900       0.06808000
O        5.42383000       3.21191000       1.20960000      -1.25280500       1.93212400      -0.50176200       0.25427200
O        5.48004000       8.20957000       1.84478000      -1.32425700       0.78819900      -1.12281500      -0.85833800
O        5.19063000       5.56594000      26.63430000      -1.29690700       1.41547000      -0.26306200      -0.18905800
O        4.13369000       0.58108000      23.60590000      -1.31852400      -0.05831500      -0.04105600       1.61735900
O        8.11649000       7.47162000      29.01470000      -1.30473300      -0.78101800       0.27410400      -0.53138500
O        2.33072000       2.75411000      23.70670000      -1.30812900      -0.23291100       0.72774700      -0.44142000
O        7.60283000       0.95982000       2.90213000      -1.31801800      -0.97592100      -1.37884300      -0.33744800
O        6.53659000       5.13201000       7.68190000      -1.32107900       1.27648600       1.83708700       0.94302100
O        3.79282000       1.96036000       3.97329000      -1.32846600      -0.79051200      -0.54402100       0.25517900
O        6.67976000       0.18023000       6.51663000      -1.31753600      -0.78895500      -0.07746900      -1.51902200
O        7.10086000       5.99291000       4.74503000      -1.29765600      -0.32172100       1.10762000      -0.73726300
O        4.21842000       2.89277000      28.69540000      -1.31475500      -0.31963100      -0.30001600       0.34322500
O        8.86483000       6.76175000       1.40468000      -1.32182800      -0.42928500       0.10178800      -0.27251800
O        2.11149000       2.31233000       6.45000000      -1.27887700       0.90462800      -0.46864800      -1.59810200
O        1.46385000       5.88250000      25.20620000      -1.31288900      -0.89051000       1.63501200      -0.60033800
O        0.37121000       8.62647000       6.35938000      -1.37444900       0.72723700      -2.19066300      -1.37045700
O        3.16378000       5.15215000       3.63080000      -1.26522000       0.18232200       1.22173500      -0.12666900
O        8.50968000       1.49241000       0.25060000      -1.31454500      -0.52535200      -0.58307500       1.51327600
O        1.65452000       1.18663000      25.70880000      -1.35168800       0.07382800      -0.51771400       0.04211900
O        2.69512000       6.74340000      27.52250000      -1.34939500       1.75442200       1.00550700       2.27498200
O        5.83187000       4.62434000      23.51240000      -1.31640800       0.28431600       0.85720200      -0.52519200
O        7.72735000       3.08880000       4.88220000      -1.34717900      -0.58364700      -0.45452500       0.22749100
O        4.81738000       8.02511000       4.56735000      -1.35580900      -2.43986700       0.22403200      -0.51658400
O        9.71438000       0.36991000      26.94810000      -1.27879200      -1.20862000      -0.85319600       1.57362800
O        6.01665000       8.47419000      25.87320000      -1.29841600      -1.32491900       0.98688300       1.11037500
O        7.88930000       6.11018000      22.48490000      -1.38097500       0.79098900      -1.58036700      -0.96629600
O        8.66203000       6.82739000      25.65680000      -1.27978800       1.94944700      -0.30465700       1.86618000
O        1.77852000       3.51502000       1.91092000      -1.36142700      -0.11734600      -0.58341300       0.85208100
O        8.55234000       0.05124000      22.43790000      -1.41110700      -1.62163000      -0.28134700      -0.87181200
O        6.06224000       0.44559000      29.40770000      -1.30244300      -0.66875200      -0.78607800       0.98890100
O        9.52657000       2.48935000       7.13800000      -1.27231300       0.52469700      -0.34162100      -0.94850000
O        2.24657000       4.48394000      29.19330000      -1.37252000       0.02178600      -0.50273500       0.50872600
O        8.76578000       4.57964000      27.15950000      -1.28123300      -0.60000100      -0.00258600       0.47778300
O        2.89992000       7.75565000       6.40646000      -1.33348100       0.29792900      -0.10691600       0.65657400
O        3.37996000       5.30268000      23.17660000      -1.31296500      -0.25318300       0.07914700       0.45821600
O        3.19506000       4.99246000       6.22224000      -1.36291500      -0.17321200       1.12906500      -1.29021000
O        6.31945000       5.63654000       1.89010000      -1.33996600      -0.80398700      -0.85124500      -0.04155200
O        7.35008000       2.01089000      26.89250000      -1.26628200      -0.20658500       0.28191300      -1.29345400
O        4.34356000       1.13287000       7.78389000      -1.31066700       0.40104000       0.97861800      -1.23962200
O        9.89421000       4.49579000      29.70290000      -1.34477400       0.04454700       0.58487400      -0.18907500
O        1.93747000       0.81472000       2.01105000      -1.27207100       1.38507400       0.53791300       1.58231000
O        9.15710000       6.32483000       6.29388000      -1.28209900      -0.89763300       1.16816600       2.18669600
O        1.01188000       0.62245000      29.48570000      -1.38835700       3.69130700      -0.29754300      -2.13078600
O        9.39068000       4.02979000      24.23330000      -1.30854200      -0.79589200       0.98494400      -1.86413600
O        3.18028000       0.65184000      27.82740000      -1.35081900       1.19553600       0.14210600       0.45592000
O        1.03766000       8.17568000      23.56530000      -1.29864100       0.58307900       0.47625800       0.57306600
O        9.92958000       4.26215000       3.81181000      -1.36143300      -1.22759700      -0.71715700      -0.58423600
O        0.00322000       8.38059000       3.47970000      -1.31975700       1.29892000      -0.67761600       0.72576600
O        7.42090000       2.38562000      23.85910000      -1.36059400       1.23473100      -1.75383700       1.27158900
O        5.38804000       3.25924000       6.42417000      -1.34152700       2.28884500      -1.89935200      -0.08848300
H        6.36754000       2.88321000       1.17759000       0.60625500      -1.25585500       0.22742400       0.29600400
H        5.18819000       3.10099000       0.28279000       0.66421800      -0.76861000      -0.15481200      -0.58807200
H        5.64431000       7.21645000       1.82090000       0.66777200       0.37393200       0.62100800      -0.34907100
H        4.94190000       8.24104000       2.61835000       0.65689000      -0.96094500       0.38777200       1.26796200
H        1.22847000       6.72704000      24.67250000       0.63308600       0.20653300      -1.49568500       0.86876200
H        4.44087000       6.05069000      26.98160000       0.67108000      -0.89230500       0.38667800       0.19500600
H        4.70572000       0.59321000      22.83420000       0.63901000       0.45614100      -0.09894200       0.04141300
H        4.65781000       0.39830000      24.44550000       0.65555500      -0.36707300       0.21914000      -1.58560100
H        8.46009000       7.73871000      29.89060000       0.64371500      -0.65462900      -0.17460300      -0.32199000
H        7.18058000       7.83504000      28.92070000       0.63517700       1.81545200      -0.24928300       0.67287400
H        6.20978000       4.33725000       7.28103000       0.69988600      -0.61000500      -1.71585200      -0.48613600
H        1.75503000       2.71805000      22.91280000       0.61240300       0.43739100      -0.19112800       0.43250900
H        9.28519000       6.17725000       0.76214000       0.66518700       0.34058500      -0.37400300      -0.08754900
H        6.84529000       0.28220000       2.73611000       0.64901300       1.17229400       1.47886600       0.07257500
H        6.90501000       6.12230000       3.79744000       0.64925100       0.12752200      -0.06357600       0.05817700
H        5.87811000       5.77587000       7.43471000       0.62833100      -0.34076700       0.61570400      -0.03359100
H        4.32933000       2.55062000       3.44426000       0.67833700       0.45413900       0.05067100      -0.14016100
H        7.51657000       0.03688000       6.09024000       0.62769700       0.72862900      -0.05142600      -0.18352300
H        6.86786000       0.28415000       7.43112000       0.65294100       0.34863200       0.09990100       1.64777800
H        2.22279000       6.55260000      26.74780000       0.70242700      -1.39938100      -0.79099400      -2.29476700
H        6.85473000       5.09047000       4.87726000       0.65622200      -0.13011600      -1.11211300       0.34076200
H        4.14916000       7.81082000       5.28304000       0.65534100       0.32372500       0.50804700      -0.83334500
H        4.84650000       3.36458000      28.15390000       0.64735100       0.30125000      -0.01698300      -0.71814700
H        3.87895000       2.05792000      28.24070000       0.67314700       0.64096300       0.48879500       0.20067300
H        3.04866000       2.09992000      23.59950000       0.68110600      -0.02170400      -0.34398000      -0.24164100
H        9.49586000       6.94326000       2.10222000       0.65948800       0.33770200       0.03764300       0.35625300
H        2.54201000       1.94885000       5.60556000       0.62888200      -0.93243600       0.79079000       1.41322700
H        2.40038000       3.24554000       6.43980000       0.65675800       0.02272100       0.02211100       0.23350100
H        7.30466000       1.68291000       3.47852000       0.65925900       0.05771100      -0.19736300       0.14913000
H        2.15000000       5.50059000      24.65260000       0.66448000       0.40600700      -0.04765700      -0.24009900
H        9.95753000       7.78834000       6.38184000       0.66801800       0.31182700       0.24961600       0.05409400
H        2.59010000       4.59952000       3.08071000       0.65961200      -0.18950500      -0.31933000      -0.66547600
H        3.14258000       6.06246000       3.26077000       0.62381300       0.01367300      -0.97448300       0.31404900
H        7.71337000       1.10583000      29.97540000       0.65658500       0.14388600       0.25682000      -0.48068700
H        8.32094000       1.23435000       1.20368000       0.64228800       0.41248200       0.56237400      -0.95565400
H        0.74235000       0.97581000      26.01680000       0.68601600       0.43427000      -0.00355400       0.45694200
H        1.62758000       2.01052000      25.21790000       0.67204900       0.08125900       0.41294300      -0.47580400
H       10.05070000       0.51165000       6.82140000       0.69024800      -0.85952000       1.63692600       1.06596200
H        2.88071000       7.71038000      27.50300000       0.63346700      -0.14320300      -0.52742000       0.19599100
H        5.96870000       4.70922000      24.45700000       0.65081000      -0.06187000      -0.03584900       0.48017100
H        5.10029000       5.27005000      23.31810000       0.66113100       0.03307700      -0.94167500       0.19813000
H        4.30210000       1.20014000       4.30972000       0.66296900       0.39146600       0.09145100      -0.26652800
H        8.42538000       3.58047000       4.40109000       0.69706500       0.30325100      -0.06293200       0.15495900
H        8.15031000       2.70174000       5.67599000       0.65971800       0.33814100       0.36684400      -0.28998500
H        5.64336000       7.89538000       4.97465000       0.69127000       1.75784400      -0.26169300       0.93092700
H        9.54931000       8.66914000      27.82810000       0.65050000       0.27234800       0.87148600      -1.70383900
H        6.38606000       0.04484000      26.70620000       0.63747500       0.00785100      -0.16024400      -0.81607300
H        7.93504000       7.05952000      22.56390000       0.67100200      -0.41814700       0.83851100       0.71431500
H        6.68133000       7.93417000      25.49150000       0.66786900       1.53372000      -0.83420800      -0.46206100
H        8.87263000       0.86187000      26.80370000       0.64179900       0.31055200      -0.08769000       0.28282100
H        7.12067000       5.60818000      22.83410000       0.71242100      -0.38220200       0.58212900       0.36944100
H        9.38318000       7.41627000      26.05850000       0.60592400      -1.62462700      -0.29289900      -1.03037800
H        8.89926000       6.01475000      26.22770000       0.63824400      -0.81877200       0.87871000      -1.19099000
H        1.86139000       2.52435000       2.05222000       0.66703800      -0.29427000       0.83255100      -0.44770100
H        9.36912000       0.03134000      22.89280000       0.72629600       2.21938600      -0.39718200       0.81213600
H        5.53905000       0.02137000       0.00881000       0.67042900       0.64692500       0.50695400      -0.31644600
H        2.07767000       3.69809000       1.01858000       0.68111600       0.12266300       0.20626900      -0.61783700
H        5.44557000       0.46113000      28.68100000       0.64976600      -0.46254900       0.34346000      -0.49665700
H        9.55611000       2.68599000       8.08234000       0.55741400      -0.32922600       0.15244900       0.62341500
H        0.34098000       2.56311000       6.90901000       0.63576600      -0.26114900      -0.09577300      -0.33625500
H        2.43950000       5.39956000      29.00440000       0.69105100       0.29908200       0.69300200      -0.57597200
H        7.89609000       4.88545000      27.43140000       0.61856700      -0.65590700       0.28930700      -0.45500400
H        2.95323000       3.92152000      28.78580000       0.68417600      -0.13060500       0.16656400       0.27464200
H        9.14782000       4.67097000      28.05130000       0.68187400       0.99121100      -0.43486300       0.44658200
H        2.44923000       0.80453000      28.43110000       0.68493200      -0.92803200      -0.30184900       0.61709800
H        1.95191000       8.10978000       6.55296000       0.68812100       1.12944600      -0.23013800       0.25320300
H        3.51118000       7.84582000       7.18883000       0.63820700      -1.39498000       0.45277200      -0.61166400
H        3.09844000       4.35958000      23.28940000       0.67844400       0.07918700       0.26615800      -0.32541100
H        2.93453000       5.05737000       5.24018000       0.65600100       0.60140500      -0.56483600       0.85069300
H        7.17887000       5.63061000       1.45610000       0.66078800       0.33952600       0.33825200       0.00907300
H        3.25224000       5.98740000       6.33436000       0.66194100      -0.38055600      -1.05657200       0.62379000
H        3.12608000       5.60431000      22.28400000       0.57860300      -0.22001300      -0.13922800       0.05781800
H        5.85910000       4.77868000       1.60811000       0.67499500       0.40453700       0.92171500       0.33585500
H        7.65205000       2.93311000      26.97610000       0.63601900       0.43962400      -0.23521000       0.39354300
H        7.17524000       1.99686000      25.91790000       0.62495800      -0.08768500      -0.20992000       0.55745400
H        8.10367000       0.80616000      22.82580000       0.70623900      -0.69533700       0.84272100       0.50253100
H        9.84654000       3.64599000       0.00847000       0.64730900      -0.35949100      -0.44580600       0.12264800
H        2.76339000       1.03805000       2.54841000       0.62782100      -1.03217800      -0.41839500      -0.79285400
H        0.70746000       4.51755000      29.40180000       0.69276700      -0.35972200      -0.10675500       0.11011300
H        4.88321000       1.77105000       7.15217000       0.65561800      -1.23361700      -1.06491400       1.49803700
H        1.31051000       0.52985000       2.72568000       0.64332900      -0.07256900      -0.30334800      -0.57250600
H        8.38981000       6.25262000       5.70121000       0.67819600      -0.10127600      -0.24638600      -0.98068800
H        8.62515000       6.60363000       7.11154000       0.58629400       1.30794800      -0.91597400      -0.89705500
H        5.88513000       6.24566000      26.54400000       0.59656800      -0.52645200      -0.29805600       0.02807600
H        1.46057000       0.70352000       0.17429000       0.67150900       1.11572900      -0.03558200       1.52726700
H        9.13097000       4.81931000      23.67910000       0.64269900       0.04830700      -1.00840600       0.41331300
H        0.16292000       0.65615000      29.76960000       0.70968500      -4.72999000       0.50665900       0.91042200
H        9.96926000       4.46668000      24.83460000       0.67083100       1.05378000       0.41584200       1.26098500
H        2.80704000       1.00216000      27.01320000       0.69511400      -0.64409700       0.08056000      -1.32013900
H        3.40139000       1.30405000       7.53763000       0.65759900       0.67967500       0.21033700       0.09415000
H        1.65301000       7.84582000      22.88940000       0.63113100      -0.07822800       0.24536600       0.03731800
H        1.57126000       0.02073000      24.13690000       0.65245400      -0.55448200      -0.53377200      -0.50895000
H        0.36820000       4.21761000       3.04871000       0.70702000       0.41394500      -0.14854400      -0.36309700
H        0.20092000       4.75442000       4.49256000       0.66317600       0.72086600       0.83660800       0.98946300
H        9.38442000       0.12776000       3.26033000       0.67210800      -1.07797000       0.59799800       0.19443400
H        0.14178000       8.39678000       4.46140000       0.65239900      -0.39544700       0.31771800      -0.76049000