 vasp.6.4.3 19Mar24 (build Sep  4 2024 12:23:58) complex                         
 executed on              LinuxNV date 2025.10.01  16:22:26
 running    4 mpi-ranks, with    1 threads/rank, on    1 nodes
 distrk:  each k-point on    2 cores,    2 groups
 distr:  one band on NCORE=   1 cores,    2 groups
 OpenACC runtime initialized ...    4 GPUs detected


--------------------------------------------------------------------------------------------------------


 INCAR:
   ENCUT = 800.000000
   SIGMA = 0.100000
   EDIFF = 1.00e-07
   ALGO = fast
   METAGGA = R2SCAN
   PREC = Accurate
   IBRION = -1
   ICHARG = 2
   ISMEAR = 0
   ISTART = 0
   KPAR = 2
   NELM = 160
   NPAR = 2
   NCORE = 1
   LAECHG = .TRUE.
   LASPH = .TRUE.
   LVHAR = .TRUE.
   LMIXTAU = .TRUE.
   LREAL = Auto

 POTCAR:    PAW_PBE Cu 22Jun2005                  
 POTCAR:    PAW_PBE O_h 06Feb2004                 
 POTCAR:    PAW_PBE H_h 06Feb2004                 
 POTCAR:    PAW_PBE Cu 22Jun2005                  
   VRHFIN =Cu: d10 p1                                                                               
   LEXCH  = PE                                                                                      
   EATOM  =  1390.9808 eV,  102.2342 Ry                                                             
                                                                                                    
   TITEL  = PAW_PBE Cu 22Jun2005                                                                    
   LULTRA =        F    use ultrasoft PP ?                                                          
   IUNSCR =        1    unscreen: 0-lin 1-nonlin 2-no                                               
   RPACOR =    2.000    partial core radius                                                         
   POMASS =   63.546; ZVAL   =   11.000    mass and valenz                                          
   RCORE  =    2.300    outmost cutoff radius                                                       
   RWIGS  =    2.200; RWIGS  =    1.164    wigner-seitz radius (au A)                               
   ENMAX  =  295.446; ENMIN  =  221.585 eV                                                          
   ICORE  =        3    local potential                                                             
   LCOR   =        T    correct aug charges                                                         
   LPAW   =        T    paw PP                                                                      
   EAUG   =  586.980                                                                                
   DEXC   =    0.000                                                                                
   RMAX   =    2.344    core radius for proj-oper                                                   
   RAUG   =    1.300    factor for augmentation sphere                                              
   RDEP   =    2.302    radius for radial grids                                                     
   RDEPT  =    1.771    core radius for aug-charge                                                  
                                                                                                    
   Atomic configuration                                                                             
    9 entries                                                                                       
     n  l   j            E        occ.                                                              
     1  0  0.50     -8850.2468   2.0000                                                             
     2  0  0.50     -1062.3498   2.0000                                                             
     2  1  1.50      -916.8226   6.0000                                                             
     3  0  0.50      -114.6929   2.0000                                                             
     3  1  1.50       -72.1325   6.0000                                                             
     3  2  2.50        -5.0394  10.0000                                                             
     4  0  0.50        -4.6097   1.0000                                                             
     4  1  0.50        -4.0817   0.0000                                                             
     4  3  2.50        -1.3606   0.0000                                                             
   Description                                                                                      
     l       E           TYP  RCUT    TYP  RCUT                                                     
     2     -5.0393973     23  2.200                                                                 
     2     10.8846608     23  2.200                                                                 
     0     -4.6097109     23  2.200                                                                 
     0      8.2520465     23  2.200                                                                 
     1     -2.7211652     23  2.200                                                                 
     1     21.7055443     23  2.200                                                                 
     3      2.7211652     23  2.300                                                                 
  local pseudopotential read in
  partial core-charges read in
  partial kinetic energy density read in
  atomic valenz-charges read in
  non local Contribution for L=            2  read in
    real space projection operators read in
  non local Contribution for L=            2  read in
    real space projection operators read in
  non local Contribution for L=            0  read in
    real space projection operators read in
  non local Contribution for L=            0  read in
    real space projection operators read in
  non local Contribution for L=            1  read in
    real space projection operators read in
  non local Contribution for L=            1  read in
    real space projection operators read in
    PAW grid and wavefunctions read in
 
   number of l-projection  operators is LMAX  =            6
   number of lm-projection operators is LMMAX =           18
 
 POTCAR:    PAW_PBE O_h 06Feb2004                 
   VRHFIN =O: s2p4                                                                                  
   LEXCH  = PE                                                                                      
   EATOM  =   432.3788 eV,   31.7789 Ry                                                             
                                                                                                    
   TITEL  = PAW_PBE O_h 06Feb2004                                                                   
   LULTRA =        F    use ultrasoft PP ?                                                          
   IUNSCR =        1    unscreen: 0-lin 1-nonlin 2-no                                               
   RPACOR =    0.800    partial core radius                                                         
   POMASS =   16.000; ZVAL   =    6.000    mass and valenz                                          
   RCORE  =    1.100    outmost cutoff radius                                                       
   RWIGS  =    1.400; RWIGS  =    0.741    wigner-seitz radius (au A)                               
   ENMAX  =  700.000; ENMIN  =  500.000 eV                                                          
   ICORE  =        2    local potential                                                             
   LCOR   =        T    correct aug charges                                                         
   LPAW   =        T    paw PP                                                                      
   EAUG   =  888.804                                                                                
   DEXC   =    0.000                                                                                
   RMAX   =    1.128    core radius for proj-oper                                                   
   RAUG   =    1.300    factor for augmentation sphere                                              
   RDEP   =    1.125    radius for radial grids                                                     
   RDEPT  =    1.088    core radius for aug-charge                                                  
                                                                                                    
   Atomic configuration                                                                             
    4 entries                                                                                       
     n  l   j            E        occ.                                                              
     1  0  0.50      -514.6923   2.0000                                                             
     2  0  0.50       -23.9615   2.0000                                                             
     2  1  0.50        -9.0305   4.0000                                                             
     3  2  1.50        -9.5241   0.0000                                                             
   Description                                                                                      
     l       E           TYP  RCUT    TYP  RCUT                                                     
     0    -23.9615319     23  1.100                                                                 
     0    -25.3221145     23  1.100                                                                 
     1     -9.0304911     23  1.100                                                                 
     1     -5.4802209     23  1.100                                                                 
     2     -9.5240782      7  1.100                                                                 
  local pseudopotential read in
  partial core-charges read in
  partial kinetic energy density read in
  atomic valenz-charges read in
  non local Contribution for L=            0  read in
    real space projection operators read in
  non local Contribution for L=            0  read in
    real space projection operators read in
  non local Contribution for L=            1  read in
    real space projection operators read in
  non local Contribution for L=            1  read in
    real space projection operators read in
    PAW grid and wavefunctions read in
 
   number of l-projection  operators is LMAX  =            4
   number of lm-projection operators is LMMAX =            8
 
 POTCAR:    PAW_PBE H_h 06Feb2004                 
   VRHFIN =H: ultrasoft test                                                                        
   LEXCH  = PE                                                                                      
   EATOM  =    12.4884 eV,    0.9179 Ry                                                             
                                                                                                    
   TITEL  = PAW_PBE H_h 06Feb2004                                                                   
   LULTRA =        F    use ultrasoft PP ?                                                          
   IUNSCR =        0    unscreen: 0-lin 1-nonlin 2-no                                               
   RPACOR =    0.000    partial core radius                                                         
   POMASS =    1.000; ZVAL   =    1.000    mass and valenz                                          
   RCORE  =    0.800    outmost cutoff radius                                                       
   RWIGS  =    0.700; RWIGS  =    0.370    wigner-seitz radius (au A)                               
   ENMAX  =  700.000; ENMIN  =  350.000 eV                                                          
   RCLOC  =    0.701    cutoff for local pot                                                        
   LCOR   =        T    correct aug charges                                                         
   LPAW   =        T    paw PP                                                                      
   EAUG   = 1000.000                                                                                
   RMAX   =    0.819    core radius for proj-oper                                                   
   RAUG   =    1.000    factor for augmentation sphere                                              
   RDEP   =    0.817    radius for radial grids                                                     
   RDEPT  =    0.817    core radius for aug-charge                                                  
                                                                                                    
   Atomic configuration                                                                             
    2 entries                                                                                       
     n  l   j            E        occ.                                                              
     1  0  0.50        -6.4927   1.0000                                                             
     2  1  0.50        -3.4015   0.0000                                                             
   Description                                                                                      
     l       E           TYP  RCUT    TYP  RCUT                                                     
     0     -6.4927493     23  0.800                                                                 
     0      6.8029130     23  0.800                                                                 
     1     -6.8029130     23  0.800                                                                 
  local pseudopotential read in
  atomic valenz-charges read in
  non local Contribution for L=            0  read in
    real space projection operators read in
  non local Contribution for L=            0  read in
    real space projection operators read in
  non local Contribution for L=            1  read in
    real space projection operators read in
    PAW grid and wavefunctions read in
 
   number of l-projection  operators is LMAX  =            3
   number of lm-projection operators is LMMAX =            5
 
 Optimization of the real space projectors (new method)

 maximal supplied QI-value         = 16.25
 optimisation between [QCUT,QGAM] = [ 14.46, 28.93] = [ 58.58,234.33] Ry 
 Optimized for a Real-space Cutoff    1.35 Angstroem

   l    n(q)    QCUT    max X(q) W(low)/X(q) W(high)/X(q)  e(spline) 
   2     11    14.464     4.610    0.56E-04    0.10E-03    0.52E-06
   2     11    14.464     8.522    0.88E-04    0.16E-03    0.84E-06
   0     12    14.464    51.609    0.44E-04    0.29E-04    0.63E-06
   0     12    14.464    27.747    0.38E-04    0.27E-04    0.60E-06
   1     11    14.464    20.408    0.64E-04    0.66E-04    0.14E-06
   1     11    14.464    13.425    0.56E-04    0.59E-04    0.13E-06
 Optimization of the real space projectors (new method)

 maximal supplied QI-value         = 34.20
 optimisation between [QCUT,QGAM] = [ 14.37, 28.73] = [ 57.79,231.16] Ry 
 Optimized for a Real-space Cutoff    0.98 Angstroem

   l    n(q)    QCUT    max X(q) W(low)/X(q) W(high)/X(q)  e(spline) 
   0      8    14.366   280.207    0.54E-04    0.14E-03    0.22E-06
   0      8    14.366   228.978    0.55E-04    0.14E-03    0.22E-06
   1      8    14.366    86.127    0.24E-03    0.25E-03    0.26E-06
   1      8    14.366    65.368    0.24E-03    0.24E-03    0.26E-06
 Optimization of the real space projectors (new method)

 maximal supplied QI-value         = 47.24
 optimisation between [QCUT,QGAM] = [ 14.17, 28.82] = [ 56.25,232.56] Ry 
 Optimized for a Real-space Cutoff    0.95 Angstroem

   l    n(q)    QCUT    max X(q) W(low)/X(q) W(high)/X(q)  e(spline) 
   0      8    14.173    34.671    0.25E-03    0.45E-03    0.25E-06
   0      8    14.173    17.046    0.24E-03    0.43E-03    0.25E-06
   1      8    14.173     1.978    0.58E-04    0.22E-03    0.31E-06
 -----------------------------------------------------------------------------
|                                                                             |
|               ----> ADVICE to this user running VASP <----                  |
|                                                                             |
|     You enforced a specific xc type in the INCAR file but a different       |
|     type was found in the POTCAR file.                                      |
|     I HOPE YOU KNOW WHAT YOU ARE DOING!                                     |
|                                                                             |
 -----------------------------------------------------------------------------

  PAW_PBE Cu 22Jun2005                  :
 energy of atom  1       EATOM=-1390.9808
 kinetic energy error for atom=    0.0007 (will be added to EATOM!!)
  PAW_PBE O_h 06Feb2004                 :
 energy of atom  2       EATOM= -432.3788
 kinetic energy error for atom=    0.0500 (will be added to EATOM!!)
  PAW_PBE H_h 06Feb2004                 :
 energy of atom  3       EATOM=  -12.4884
 kinetic energy error for atom=    0.0035 (will be added to EATOM!!)
 
 
 POSCAR: Cu O  H
  positions in cartesian coordinates
  velocities in cartesian coordinates


 exchange-correlation table for R2SCAN
   RHO(1)=    0.500       N(1)  =     2000
   RHO(2)=  100.500       N(2)  =     4000
 


--------------------------------------------------------------------------------------------------------


 ion  position               nearest neighbor table
   1  0.696  0.123  0.328-   5 2.46  17 2.48   4 2.52   8 2.53  32 2.55  16 2.58   2 2.58  15 2.59
                            18 2.62
   2  0.951  0.109  0.328-  29 2.41  16 2.45  13 2.51   3 2.52  19 2.53   5 2.56   1 2.58  18 2.60
                             6 2.65
   3  0.199  0.113  0.334-  30 2.33  19 2.37  20 2.47  14 2.51   2 2.52   4 2.52   6 2.57   7 2.58
                            13 2.62
   4  0.447  0.123  0.331- 135 2.21  17 2.45  20 2.46   3 2.52   1 2.52  15 2.52   7 2.59  31 2.59
                             8 2.61  14 2.67
   5  0.824  0.361  0.328-   1 2.46   8 2.48   9 2.50  18 2.53   2 2.56  12 2.57   6 2.59  22 2.60
                            21 2.60
   6  0.079  0.371  0.333-   7 2.39  19 2.39  10 2.43  23 2.47  22 2.51   9 2.55   3 2.57   5 2.59
                             2 2.65
   7  0.314  0.375  0.329-   6 2.39  10 2.49  24 2.50  23 2.54  20 2.56  11 2.58   3 2.58   4 2.59
                             8 2.70
   8  0.580  0.378  0.331-  12 2.42  24 2.44  21 2.47   5 2.48   1 2.53  17 2.56  11 2.57   4 2.61
                             7 2.70
   9  0.940  0.613  0.329-  12 2.44  22 2.49   5 2.50  10 2.51  13 2.51  16 2.55  25 2.55   6 2.55
                            26 2.62
  10  0.187  0.618  0.328-   6 2.43  13 2.43   7 2.49  14 2.50  27 2.50  23 2.51   9 2.51  26 2.58
                            11 2.63
  11  0.445  0.626  0.334-  28 2.37  27 2.37  24 2.42  14 2.46  15 2.48   8 2.57   7 2.58  12 2.59
                            10 2.63
  12  0.699  0.616  0.324- 104 2.18   8 2.42   9 2.44   5 2.57  16 2.57  11 2.59  28 2.61  25 2.63
                            15 2.64  21 2.65
  13  0.067  0.858  0.328-  10 2.43  26 2.45  16 2.46   2 2.51  14 2.51   9 2.51   3 2.62  29 2.65
                            30 2.66
  14  0.315  0.861  0.330-  27 2.43  11 2.46  10 2.50  31 2.51  13 2.51   3 2.51  30 2.54  15 2.56
                             4 2.67
  15  0.566  0.871  0.336-  32 2.29  31 2.30  11 2.48  28 2.49   4 2.52  14 2.56   1 2.59  16 2.64
                            12 2.64
  16  0.825  0.871  0.328-   2 2.45  13 2.46  32 2.49   9 2.55  25 2.55  29 2.55  12 2.57   1 2.58
                            15 2.64
  17  0.577  0.193  0.397-   4 2.45  33 2.46   1 2.48  32 2.50  37 2.50  20 2.54  18 2.56   8 2.56
                            24 2.61  21 2.62  31 2.64  40 2.65
  18  0.829  0.207  0.399-  29 2.37  38 2.41  34 2.49  22 2.50  19 2.52   5 2.53  21 2.53  17 2.56
                            37 2.58   2 2.60   1 2.62  32 2.68
  19  0.077  0.203  0.395-   3 2.37   6 2.39  30 2.42  29 2.47  18 2.52  39 2.52   2 2.53  20 2.53
                            35 2.55  22 2.61  23 2.63  38 2.67
  20  0.327  0.207  0.398-  24 2.44  40 2.45   4 2.46   3 2.47  30 2.50  36 2.51  19 2.53  17 2.54
                             7 2.56  39 2.59  23 2.63  31 2.66
  21  0.702  0.455  0.399-  28 2.36  41 2.43   8 2.47  22 2.47  37 2.48  25 2.49  18 2.53  44 2.58
                            24 2.59   5 2.60  17 2.62  12 2.65
  22  0.945  0.459  0.398-  42 2.46  21 2.47   9 2.49  18 2.50  38 2.51   6 2.51  25 2.52  41 2.55
                            23 2.57  26 2.58   5 2.60  19 2.61
  23  0.198  0.467  0.399-  27 2.35  43 2.42   6 2.47  10 2.51  24 2.52  42 2.53   7 2.54  39 2.54
                            26 2.56  22 2.57  19 2.63  20 2.63
  24  0.446  0.449  0.396-  11 2.42  28 2.42  20 2.44   8 2.44   7 2.50  23 2.52  40 2.52  44 2.55
                            27 2.58  21 2.59  17 2.61  43 2.64
  25  0.818  0.705  0.398-  32 2.44  28 2.48  21 2.49  45 2.50  41 2.50  22 2.52  26 2.53   9 2.55
                            16 2.55  48 2.56  12 2.63  29 2.64
  26  0.068  0.716  0.398-  13 2.45  46 2.46  27 2.49  45 2.52  25 2.53  30 2.55  42 2.55  23 2.56
                            10 2.58  29 2.58  22 2.58   9 2.62
  27  0.313  0.699  0.396-  23 2.35  11 2.37  14 2.43  31 2.47  26 2.49  10 2.50  43 2.52  24 2.58
                            47 2.59  46 2.60  30 2.62  28 2.66
  28  0.575  0.680  0.398-  21 2.36  11 2.37  44 2.39  24 2.42  25 2.48  15 2.49  48 2.54  12 2.61
                            31 2.61  32 2.62  27 2.66  47 2.66
  29  0.940  0.970  0.397-  18 2.37   2 2.41  19 2.47  35 2.48  32 2.49  34 2.51  16 2.55  26 2.58
                            45 2.59  30 2.60  25 2.64  13 2.65
  30  0.197  0.965  0.398-   3 2.33  19 2.42  36 2.44  20 2.50  31 2.51  14 2.54  35 2.54  46 2.55
                            26 2.55  29 2.60  27 2.62  13 2.66
  31  0.443  0.936  0.398-  15 2.30  47 2.41  27 2.47  14 2.51  30 2.51  33 2.55  32 2.56   4 2.59
                            36 2.61  28 2.61  17 2.64  20 2.66
  32  0.696  0.944  0.395-  15 2.29  25 2.44  16 2.49  29 2.49  17 2.50  48 2.52   1 2.55  31 2.56
                            34 2.58  28 2.62  33 2.66  18 2.68
  33  0.562  0.042  0.466-  17 2.46  47 2.54  36 2.54  48 2.54  52 2.54  40 2.54  63 2.54  49 2.54
                            37 2.54  34 2.54  31 2.55  32 2.66
  34  0.813  0.042  0.466-  18 2.49  29 2.51  45 2.54  35 2.54  48 2.54  50 2.54  38 2.54  64 2.54
                            49 2.54  37 2.54  33 2.54  32 2.58
  35  0.063  0.042  0.466-  29 2.48  34 2.54  46 2.54  45 2.54  61 2.54  36 2.54  51 2.54  39 2.54
                            50 2.54  38 2.54  30 2.54  19 2.55
  36  0.313  0.042  0.466-  30 2.44  20 2.51  33 2.54  47 2.54  46 2.54  62 2.54  35 2.54  52 2.54
                            51 2.54  40 2.54  39 2.54  31 2.61
  37  0.688  0.292  0.466-  21 2.48  17 2.50  38 2.54  40 2.54  41 2.54  44 2.54  53 2.54  56 2.54
                            49 2.54  34 2.54  33 2.54  18 2.58
  38  0.937  0.292  0.466-  18 2.41  22 2.51  41 2.54  37 2.54  42 2.54  53 2.54  34 2.54  39 2.54
                            54 2.54  50 2.54  35 2.54  19 2.67
  39  0.187  0.292  0.466-  19 2.52  42 2.54  43 2.54  54 2.54  55 2.54  38 2.54  35 2.54  51 2.54
                            36 2.54  40 2.54  23 2.54  20 2.59
  40  0.438  0.292  0.466-  20 2.45  24 2.52  44 2.54  37 2.54  43 2.54  56 2.54  33 2.54  55 2.54
                            52 2.54  36 2.54  39 2.54  17 2.65
  41  0.813  0.542  0.466-  21 2.43  25 2.50  38 2.54  37 2.54  42 2.54  45 2.54  57 2.54  48 2.54
                            53 2.54  60 2.54  44 2.54  22 2.55
  42  0.063  0.542  0.466-  22 2.46  23 2.53  39 2.54  38 2.54  41 2.54  43 2.54  46 2.54  58 2.54
                            54 2.54  45 2.54  57 2.54  26 2.55
  43  0.313  0.542  0.466-  23 2.42  27 2.52  44 2.54  40 2.54  39 2.54  42 2.54  47 2.54  46 2.54
                            55 2.54  59 2.54  58 2.54  24 2.64
  44  0.562  0.542  0.466-  28 2.39  40 2.54  43 2.54  37 2.54  47 2.54  59 2.54  48 2.54  56 2.54
                            60 2.54  41 2.54  24 2.55  21 2.58
  45  0.937  0.792  0.466-  25 2.50  26 2.52  34 2.54  48 2.54  35 2.54  41 2.54  64 2.54  46 2.54
                            57 2.54  42 2.54  61 2.54  29 2.59
  46  0.187  0.792  0.466-  26 2.46  35 2.54  36 2.54  42 2.54  45 2.54  61 2.54  43 2.54  58 2.54
                            62 2.54  47 2.54  30 2.55  27 2.60
  47  0.438  0.792  0.466-  31 2.41  33 2.54  48 2.54  36 2.54  44 2.54  63 2.54  43 2.54  59 2.54
                            62 2.54  46 2.54  27 2.59  28 2.66
  48  0.688  0.792  0.466-  32 2.52  45 2.54  47 2.54  34 2.54  33 2.54  41 2.54  44 2.54  60 2.54
                            64 2.54  63 2.54  28 2.54  25 2.56
  49  0.688  0.125  0.534-  65 2.44  66 2.53  50 2.54  52 2.54  53 2.54  56 2.54  64 2.54  63 2.54
                            37 2.54  34 2.54  33 2.54  80 2.54
  50  0.937  0.125  0.534-  67 2.52  53 2.54  64 2.54  49 2.54  54 2.54  61 2.54  34 2.54  51 2.54
                            38 2.54  35 2.54  77 2.56  66 2.58
  51  0.187  0.125  0.534-  67 2.43  54 2.54  55 2.54  61 2.54  62 2.54  50 2.54  35 2.54  39 2.54
                            36 2.54  52 2.54  78 2.56  68 2.57
  52  0.438  0.125  0.534-  65 2.42  56 2.54  63 2.54  49 2.54  55 2.54  62 2.54  33 2.54  40 2.54
                            36 2.54  51 2.54  68 2.54  79 2.64
  53  0.813  0.375  0.534-  69 2.43  50 2.54  49 2.54  54 2.54  38 2.54  57 2.54  37 2.54  60 2.54
                            41 2.54  56 2.54  66 2.55  70 2.63
  54  0.063  0.375  0.534-  70 2.51  51 2.54  50 2.54  53 2.54  39 2.54  55 2.54  58 2.54  38 2.54
                            42 2.54  57 2.54  67 2.59  71 2.60
  55  0.313  0.375  0.534-  71 2.51  72 2.52  56 2.54  52 2.54  51 2.54  54 2.54  40 2.54  39 2.54
                            59 2.54  58 2.54  43 2.54  68 2.59
  56  0.562  0.375  0.534-  72 2.36  69 2.44  52 2.54  55 2.54  49 2.54  40 2.54  59 2.54  37 2.54
                            60 2.54  44 2.54  53 2.54  65 2.59
  57  0.937  0.625  0.534-  60 2.54  53 2.54  64 2.54  41 2.54  58 2.54  45 2.54  54 2.54  61 2.54
                            42 2.54  73 2.58  70 2.64  74 2.68
  58  0.187  0.625  0.534-  74 2.49  54 2.54  61 2.54  57 2.54  42 2.54  55 2.54  62 2.54  46 2.54
                            43 2.54  59 2.54  75 2.57  71 2.59
  59  0.438  0.625  0.534-  75 2.46  76 2.51  60 2.54  56 2.54  63 2.54  44 2.54  55 2.54  62 2.54
                            47 2.54  43 2.54  58 2.54  72 2.54
  60  0.688  0.625  0.534-  69 2.45  76 2.49  57 2.54  59 2.54  53 2.54  56 2.54  64 2.54  63 2.54
                            48 2.54  41 2.54  44 2.54  73 2.75
  61  0.063  0.875  0.534-  77 2.50  64 2.54  51 2.54  50 2.54  35 2.54  62 2.54  58 2.54  46 2.54
                            57 2.54  45 2.54  78 2.54  74 2.72
  62  0.313  0.875  0.534-  78 2.47  75 2.49  63 2.54  52 2.54  51 2.54  36 2.54  61 2.54  59 2.54
                            58 2.54  47 2.54  46 2.54  79 2.54
  63  0.562  0.875  0.534-  76 2.52  52 2.54  62 2.54  59 2.54  49 2.54  47 2.54  33 2.54  60 2.54
                            48 2.54  64 2.54  80 2.55  79 2.59
  64  0.813  0.875  0.534-  80 2.52  50 2.54  61 2.54  57 2.54  49 2.54  45 2.54  34 2.54  60 2.54
                            48 2.54  63 2.54  77 2.59  73 2.72
  65  0.561  0.188  0.601-  80 2.41  52 2.42  49 2.44  81 2.47  79 2.48  68 2.49  72 2.51  66 2.52
                            85 2.59  56 2.59  69 2.70  88 2.77
  66  0.808  0.209  0.604-  85 2.43  86 2.46  69 2.48  80 2.51  65 2.52  49 2.53  70 2.54  53 2.55
                            82 2.57  50 2.58  77 2.64  67 2.67
  67  0.071  0.193  0.602-  51 2.43  77 2.44  78 2.47  68 2.48  50 2.52  86 2.53  70 2.56  83 2.57
                            54 2.59  71 2.61  87 2.63  66 2.67
  68  0.316  0.204  0.604-  67 2.48  65 2.49  71 2.50  72 2.53  78 2.54  52 2.54  84 2.54  79 2.55
                            87 2.55  51 2.57  55 2.59  88 2.65
  69  0.689  0.456  0.599-  72 2.41  53 2.43  56 2.44  60 2.45  66 2.48  92 2.50  76 2.53  73 2.59
                            85 2.63  89 2.64  70 2.65  65 2.70
  70  0.950  0.448  0.605-  86 2.44  71 2.50  54 2.51  74 2.51  73 2.54  66 2.54  89 2.55  67 2.56
                            53 2.63  90 2.63  57 2.64  69 2.65
  71  0.196  0.453  0.604-  74 2.39  68 2.50  70 2.50  55 2.51  90 2.58  91 2.59  58 2.59  87 2.60
                            72 2.60  54 2.60  75 2.61  67 2.61
  72  0.452  0.445  0.600-  56 2.36  69 2.41  92 2.48  65 2.51  55 2.52  68 2.53  59 2.54  76 2.56
                            71 2.60  75 2.68  91 2.71  88 2.72
  73  0.829  0.701  0.609-  96 2.43  93 2.46  89 2.52  70 2.54  77 2.54  74 2.55  57 2.58  69 2.59
                            80 2.66  76 2.69  64 2.72  60 2.75
  74  0.081  0.691  0.606-  94 2.36  71 2.39  90 2.46  75 2.47  93 2.48  58 2.49  70 2.51  73 2.55
                            78 2.57  57 2.68  77 2.70  61 2.72
  75  0.323  0.712  0.602-  79 2.35  76 2.45  59 2.46  74 2.47  94 2.47  78 2.48  62 2.49  95 2.55
                            58 2.57  71 2.61  72 2.68  91 2.75
  76  0.565  0.706  0.602-  75 2.45  60 2.49  92 2.49  95 2.50  59 2.51  79 2.51  63 2.52  69 2.53
                            96 2.54  80 2.55  72 2.56  73 2.69
  77  0.947  0.956  0.604-  67 2.44  83 2.48  93 2.49  61 2.50  78 2.52  73 2.54  50 2.56  82 2.58
                            64 2.59  80 2.60  66 2.64  74 2.70
  78  0.195  0.951  0.602-  79 2.41  62 2.47  67 2.47  75 2.48  83 2.49  77 2.52  84 2.53  68 2.54
                            94 2.54  61 2.54  51 2.56  74 2.57
  79  0.433  0.948  0.605-  75 2.35  78 2.41  84 2.45  65 2.48  76 2.51  81 2.52  62 2.54  68 2.55
                            95 2.56  63 2.59  80 2.62  52 2.64
  80  0.691  0.958  0.603-  65 2.41  81 2.41  66 2.51  64 2.52  96 2.53  49 2.54  76 2.55  82 2.55
                            63 2.55  77 2.60  79 2.62  73 2.66
  81  0.573  0.034  0.669-  80 2.41  82 2.45  85 2.46  65 2.47  96 2.50  79 2.52  84 2.60  88 2.62
                            95 2.62
  82  0.815  0.038  0.673- 125 2.20  81 2.45  86 2.46  85 2.50  96 2.55  80 2.55  66 2.57  77 2.58
                            93 2.61  83 2.63
  83  0.074  0.023  0.671-  93 2.30  84 2.47  77 2.48  78 2.49  94 2.50  67 2.57  87 2.58  86 2.61
                            82 2.63
  84  0.317  0.032  0.672-  79 2.45  83 2.47  78 2.53  87 2.53  68 2.54  94 2.55  88 2.57  81 2.60
                            95 2.66
  85  0.687  0.282  0.670-  66 2.43  81 2.46  89 2.47  82 2.50  92 2.53  88 2.53  86 2.58  65 2.59
                            69 2.63
  86  0.941  0.278  0.669-  70 2.44  66 2.46  82 2.46  89 2.49  67 2.53  87 2.56  85 2.58  83 2.61
                            90 2.73
  87  0.193  0.282  0.675-  88 2.50  91 2.53  84 2.53  68 2.55  86 2.56  90 2.57  83 2.58  71 2.60
                            67 2.63
  88  0.439  0.287  0.678-  91 2.41  87 2.50  85 2.53  92 2.55  84 2.57  81 2.62  68 2.65  72 2.72
                            65 2.77
  89  0.815  0.520  0.674-  85 2.47  86 2.49  92 2.52  73 2.52  70 2.55  96 2.64  69 2.64  90 2.68

  90  0.079  0.543  0.676-  94 2.38  74 2.46  91 2.49  93 2.51  87 2.57  71 2.58  70 2.63  89 2.68
                            86 2.73
  91  0.324  0.527  0.676-  88 2.41  92 2.49  90 2.49  95 2.50  87 2.53  94 2.55  71 2.59  72 2.71
                            75 2.75
  92  0.568  0.535  0.668-  95 2.40  72 2.48  91 2.49  76 2.49  69 2.50  89 2.52  85 2.53  96 2.54
                            88 2.55
  93  0.961  0.794  0.672-  83 2.30  94 2.39  73 2.46  74 2.48  77 2.49  90 2.51  82 2.61  96 2.72

  94  0.197  0.777  0.670-  74 2.36  90 2.38  93 2.39  75 2.47  83 2.50  78 2.54  91 2.55  84 2.55
                            95 2.57
  95  0.450  0.772  0.673-  92 2.40  96 2.47  76 2.50  91 2.50  75 2.55  79 2.56  94 2.57  81 2.62
                            84 2.66
  96  0.693  0.785  0.670-  73 2.43  95 2.47  81 2.50  80 2.53  76 2.54  92 2.54  82 2.55  89 2.64
                            93 2.72
  97  0.535  0.366  0.040- 148 0.96 147 1.00
  98  0.540  0.935  0.061- 150 0.94 149 1.01
  99  0.512  0.634  0.884- 152 0.96 230 0.98
 100  0.408  0.066  0.783- 153 0.96 154 1.01
 101  0.800  0.851  0.963- 155 0.98 156 1.01
 102  0.230  0.314  0.787- 171 0.98 158 0.98
 103  0.750  0.109  0.096- 175 0.97 160 1.03
 104  0.645  0.584  0.255- 157 0.95 162 0.95  12 2.18
 105  0.374  0.223  0.132- 163 0.96 188 0.97
 106  0.659  0.021  0.216- 165 0.94 164 0.95
 107  0.700  0.682  0.157- 167 0.94 161 0.98
 108  0.416  0.329  0.952- 169 0.95 170 1.01
 109  0.874  0.770  0.047- 172 0.96 159 0.96
 110  0.208  0.263  0.214- 174 0.98 173 1.02
 111  0.144  0.670  0.837- 176 0.96 151 1.03
 112  0.037  0.982  0.211- 184 0.93 177 1.00
 113  0.312  0.587  0.120- 178 0.97 179 0.98
 114  0.839  0.170  0.008- 180 0.97 181 1.01
 115  0.163  0.135  0.853- 183 0.96 182 0.99
 116  0.266  0.768  0.913- 166 0.93 185 0.98
 117  0.575  0.527  0.780- 186 0.96 187 0.99
 118  0.762  0.352  0.162- 190 0.98 189 0.98
 119  0.475  0.914  0.152- 191 0.93 168 1.00
 120  0.958  0.042  0.894- 196 0.99 192 1.02
 121  0.593  0.965  0.859- 195 0.94 193 0.98
 122  0.778  0.696  0.746- 194 0.95 197 0.98
 123  0.854  0.777  0.852- 198 1.01 199 1.02
 124  0.175  0.400  0.063- 203 0.96 200 1.00
 125  0.843  0.006  0.745- 201 0.94 222 0.96  82 2.20
 126  0.598  0.051  0.976- 204 0.95 202 0.99
 127  0.939  0.283  0.237- 205 0.97 206 0.98
 128  0.222  0.511  0.969- 207 0.95 209 0.99
 129  0.864  0.521  0.901- 208 0.96 210 0.97
 130  0.286  0.883  0.213- 213 1.00 212 1.02
 131  0.333  0.604  0.769- 218 0.98 214 0.99
 132  0.315  0.568  0.207- 217 1.00 215 1.02
 133  0.623  0.642  0.063- 216 0.96 219 1.01
 134  0.725  0.229  0.893- 220 0.97 221 0.99
 135  0.428  0.129  0.258- 236 0.99 226 1.05   4 2.21
 136  0.976  0.512  0.986- 223 0.96 225 1.00
 137  0.191  0.093  0.067- 227 0.99 224 1.01
 138  0.903  0.720  0.209- 228 0.97 229 1.01
 139  0.100  0.071  0.979- 233 0.90 231 0.94
 140  0.926  0.459  0.804- 234 0.94 232 1.00
 141  0.314  0.074  0.924- 211 0.96 235 0.96
 142  0.102  0.931  0.782- 237 0.97 238 1.00
 143  0.979  0.485  0.127- 240 0.94 239 0.96
 144  0.000  0.954  0.115- 241 0.95 242 0.99
 145  0.732  0.272  0.792- 243 0.93 244 0.99
 146  0.531  0.371  0.213- 245 0.95 246 1.01
 147  0.628  0.328  0.039-  97 1.00
 148  0.512  0.353  0.009-  97 0.96
 149  0.557  0.822  0.060-  98 1.01
 150  0.487  0.938  0.087-  98 0.94
 151  0.121  0.766  0.819- 111 1.03
 152  0.438  0.689  0.895-  99 0.96
 153  0.464  0.068  0.758- 100 0.96
 154  0.459  0.045  0.811- 100 1.01
 155  0.834  0.881  0.992- 101 0.98
 156  0.708  0.892  0.960- 101 1.01
 157  0.612  0.494  0.242- 104 0.95
 158  0.173  0.310  0.760- 102 0.98
 159  0.916  0.703  0.025- 109 0.96
 160  0.675  0.032  0.091- 103 1.03
 161  0.681  0.697  0.126- 107 0.98
 162  0.580  0.658  0.247- 104 0.95
 163  0.427  0.290  0.114- 105 0.96
 164  0.741  0.004  0.202- 106 0.95
 165  0.677  0.032  0.247- 106 0.94
 166  0.219  0.746  0.888- 116 0.93
 167  0.676  0.580  0.162- 107 0.94
 168  0.409  0.889  0.175- 119 1.00
 169  0.478  0.383  0.934- 108 0.95
 170  0.383  0.234  0.937- 108 1.01
 171  0.301  0.239  0.783- 102 0.98
 172  0.936  0.791  0.070- 109 0.96
 173  0.251  0.222  0.186- 110 1.02
 174  0.237  0.370  0.214- 110 0.98
 175  0.720  0.192  0.115- 103 0.97
 176  0.212  0.626  0.818- 111 0.96
 177  0.982  0.887  0.212- 112 1.00
 178  0.255  0.524  0.102- 113 0.97
 179  0.310  0.690  0.108- 113 0.98
 180  0.761  0.126  0.995- 114 0.97
 181  0.821  0.141  0.040- 114 1.01
 182  0.073  0.111  0.863- 115 0.99
 183  0.161  0.229  0.837- 115 0.96
 184  0.991  0.058  0.226- 112 0.93
 185  0.284  0.878  0.913- 116 0.98
 186  0.589  0.536  0.812- 117 0.96
 187  0.503  0.600  0.774- 117 0.99
 188  0.424  0.137  0.143- 105 0.97
 189  0.831  0.408  0.146- 118 0.98
 190  0.804  0.308  0.188- 118 0.98
 191  0.557  0.899  0.165- 119 0.93
 192  0.942  0.987  0.924- 120 1.02
 193  0.630  0.005  0.886- 121 0.98
 194  0.783  0.804  0.749- 122 0.95
 195  0.659  0.903  0.846- 121 0.94
 196  0.875  0.098  0.890- 120 0.99
 197  0.702  0.639  0.758- 122 0.98
 198  0.925  0.845  0.865- 123 1.01
 199  0.878  0.685  0.870- 123 1.02
 200  0.184  0.287  0.068- 124 1.00
 201  0.924  0.004  0.760- 125 0.94
 202  0.546  0.002  0.000- 126 0.99
 203  0.205  0.421  0.034- 124 0.96
 204  0.537  0.053  0.952- 126 0.95
 205  0.942  0.306  0.268- 127 0.97
 206  0.034  0.292  0.229- 127 0.98
 207  0.241  0.615  0.963- 128 0.95
 208  0.779  0.556  0.910- 129 0.96
 209  0.291  0.447  0.955- 128 0.99
 210  0.902  0.532  0.931- 129 0.97
 211  0.242  0.092  0.944- 141 0.96
 212  0.192  0.923  0.217- 130 1.02
 213  0.346  0.893  0.239- 130 1.00
 214  0.306  0.496  0.773- 131 0.99
 215  0.289  0.576  0.174- 132 1.02
 216  0.708  0.641  0.048- 133 0.96
 217  0.321  0.682  0.210- 132 1.00
 218  0.308  0.638  0.740- 131 0.98
 219  0.578  0.544  0.053- 133 1.01
 220  0.755  0.334  0.895- 134 0.97
 221  0.708  0.227  0.860- 134 0.99
 222  0.799  0.092  0.758- 125 0.96
 223  0.971  0.415  0.000- 136 0.96
 224  0.273  0.118  0.085- 137 1.01
 225  0.070  0.514  0.976- 136 1.00
 226  0.482  0.202  0.237- 135 1.05
 227  0.129  0.060  0.090- 137 0.99
 228  0.827  0.712  0.189- 138 0.97
 229  0.851  0.752  0.236- 138 1.01
 230  0.580  0.711  0.881-  99 0.98
 231  0.144  0.080  0.006- 139 0.94
 232  0.900  0.549  0.786- 140 1.00
 233  0.016  0.075  0.988- 139 0.90
 234  0.983  0.509  0.824- 140 0.94
 235  0.277  0.114  0.897- 141 0.96
 236  0.335  0.148  0.250- 135 0.99
 237  0.163  0.893  0.760- 142 0.97
 238  0.155  0.002  0.801- 142 1.00
 239  0.036  0.480  0.101- 143 0.96
 240  0.020  0.541  0.149- 143 0.94
 241  0.925  0.015  0.108- 144 0.95
 242  0.014  0.956  0.148- 144 0.99
 243  0.679  0.323  0.771- 145 0.93
 244  0.809  0.337  0.799- 145 0.99
 245  0.463  0.435  0.202- 146 0.95
 246  0.605  0.351  0.192- 146 1.01
 
  LATTYP: Found a simple orthorhombic cell.
 ALAT       =     8.7818242399
 B/A-ratio  =     1.1547005384
 C/A-ratio  =     3.4310783653
  
  Lattice vectors:
  
 A1 = (   0.0000000000,  -8.7818242399,   0.0000000000)
 A2 = (  10.1403771778,   0.0000000000,   0.0000000000)
 A3 = (   0.0000000000,   0.0000000000,  30.1311271579)


Analysis of symmetry for initial positions (statically):
=====================================================================
 Subroutine PRICEL returns:
 Original cell was already a primitive cell.
 

 Routine SETGRP: Setting up the symmetry group for a 
 simple orthorhombic supercell.


 Subroutine GETGRP returns: Found  1 space group operations
 (whereof  1 operations were pure point group operations)
 out of a pool of  8 trial point group operations.


The static configuration has the point symmetry C_1 .


Analysis of symmetry for dynamics (positions and initial velocities):
=====================================================================
 Subroutine PRICEL returns:
 Original cell was already a primitive cell.
 

 Routine SETGRP: Setting up the symmetry group for a 
 simple orthorhombic supercell.


 Subroutine GETGRP returns: Found  1 space group operations
 (whereof  1 operations were pure point group operations)
 out of a pool of  8 trial point group operations.


The dynamic configuration has the point symmetry C_1 .


 Subroutine INISYM returns: Found  1 space group operations
 (whereof  1 operations are pure point group operations),
 and found     1 'primitive' translations


----------------------------------------------------------------------------------------

                                     Primitive cell                                     

  volume of cell :    2683.2073

  direct lattice vectors                    reciprocal lattice vectors
    10.140377178  0.000000000  0.000000000     0.098615661  0.000000000  0.000000000
     0.000000000  8.781824240  0.000000000     0.000000000  0.113871557  0.000000000
     0.000000000  0.000000000 30.131127158     0.000000000  0.000000000  0.033188271

  length of vectors
    10.140377178  8.781824240 30.131127158     0.098615661  0.113871557  0.033188271

  position of ions in fractional coordinates (direct lattice)
     0.696173315  0.123255712  0.328259210
     0.950649057  0.109028030  0.328476925
     0.198894969  0.113194591  0.333641684
     0.447450812  0.123394635  0.331326138
     0.823644905  0.361353167  0.327888829
     0.078915211  0.371415996  0.332894948
     0.314101729  0.375022309  0.328708247
     0.580126350  0.378314335  0.331460551
     0.939766819  0.612700716  0.328696300
     0.187036435  0.617741810  0.328063067
     0.445250696  0.625708264  0.334136189
     0.699221526  0.616451645  0.324290225
     0.067495123  0.857678290  0.327889493
     0.314783163  0.860820007  0.330128373
     0.566155469  0.871310993  0.336402948
     0.825194157  0.870541221  0.328159977
     0.577117586  0.193184235  0.397051194
     0.829066794  0.207420457  0.398680738
     0.077141805  0.202990854  0.395278940
     0.326849775  0.207200685  0.397857668
     0.701511381  0.454988610  0.398740476
     0.945470748  0.458619973  0.398189551
     0.198392029  0.466958788  0.398564579
     0.445983411  0.448635715  0.395577634
     0.818049453  0.704924151  0.397575568
     0.067767203  0.716344330  0.397943958
     0.313190520  0.698567841  0.395521214
     0.574822800  0.680455431  0.397615394
     0.940421627  0.970449848  0.397469366
     0.197118901  0.965474800  0.397993740
     0.443228089  0.935917160  0.397754785
     0.695609234  0.943842620  0.394976927
     0.562499787  0.041666628  0.465651349
     0.812500349  0.041666628  0.465651349
     0.062500042  0.041666628  0.465651349
     0.312500210  0.041666628  0.465651349
     0.687500068  0.291667190  0.465651349
     0.937499645  0.291667190  0.465651349
     0.187499929  0.291667190  0.465651349
     0.437500492  0.291667190  0.465651349
     0.812500349  0.541666500  0.465651349
     0.062500042  0.541666500  0.465651349
     0.312500210  0.541666500  0.465651349
     0.562499787  0.541666500  0.465651349
     0.937499645  0.791666949  0.465651349
     0.187499929  0.791666949  0.465651349
     0.437500492  0.791666949  0.465651349
     0.687500068  0.791666949  0.465651349
     0.687500068  0.125000224  0.534347750
     0.937499645  0.125000224  0.534347750
     0.187499929  0.125000224  0.534347750
     0.437500492  0.125000224  0.534347750
     0.812500349  0.374999534  0.534347750
     0.062500042  0.374999534  0.534347750
     0.312500210  0.374999534  0.534347750
     0.562499787  0.374999534  0.534347750
     0.937499645  0.624999983  0.534347750
     0.187499929  0.624999983  0.534347750
     0.437500492  0.624999983  0.534347750
     0.687500068  0.624999983  0.534347750
     0.062500042  0.875000432  0.534347750
     0.312500210  0.875000432  0.534347750
     0.562499787  0.875000432  0.534347750
     0.812500349  0.875000432  0.534347750
     0.560521557  0.187556703  0.600744204
     0.808157316  0.209473561  0.603777612
     0.070959589  0.193358459  0.601865968
     0.315664787  0.204257105  0.604265480
     0.689093697  0.456195648  0.599190993
     0.949535686  0.448102796  0.605201389
     0.196364491  0.453147306  0.604341813
     0.452040385  0.444971329  0.600306119
     0.829438575  0.701011525  0.608702751
     0.080896202  0.690592277  0.606422717
     0.323277916  0.711626631  0.601919069
     0.565103240  0.706026428  0.601782997
     0.946836575  0.955698927  0.603611671
     0.194926674  0.951468598  0.602430168
     0.432805400  0.947724501  0.605115099
     0.690566029  0.957692818  0.603160310
     0.573387942  0.033992709  0.669214925
     0.815068301  0.038348752  0.672888867
     0.073722702  0.022506372  0.671126569
     0.316752518  0.031810589  0.671956276
     0.687062215  0.281868543  0.670057907
     0.941001487  0.277715647  0.669048984
     0.192650625  0.281957362  0.674588106
     0.438797288  0.287204564  0.677794093
     0.815451916  0.520356577  0.673579183
     0.078876750  0.543255008  0.675776246
     0.323819316  0.527236696  0.675606986
     0.567915759  0.534505118  0.667757960
     0.961487904  0.794325850  0.671561336
     0.196865458  0.776568719  0.669533532
     0.450248538  0.771594809  0.672712969
     0.693018600  0.784815297  0.670456166
     0.534874582  0.365745193  0.040144532
     0.540417768  0.934836519  0.061225058
     0.511877409  0.633802254  0.883946354
     0.407646572  0.066168257  0.783438996
     0.800413028  0.850805003  0.962947713
     0.229845494  0.313614794  0.786784373
     0.749758107  0.109295742  0.096316676
     0.644610145  0.584389970  0.254948976
     0.374031452  0.223229246  0.131866623
     0.658728949  0.020523185  0.216275679
     0.700256004  0.682421993  0.157479339
     0.416002277  0.329404224  0.952350699
     0.874211072  0.769971001  0.046618900
     0.208225982  0.263308618  0.214064345
     0.144358536  0.669849434  0.836550185
     0.036607120  0.982309571  0.211056824
     0.311998257  0.586683343  0.120499973
     0.839187720  0.169943050  0.008316914
     0.163161584  0.135123406  0.853230610
     0.265781041  0.767881458  0.913424176
     0.575113716  0.526580796  0.780335892
     0.762037729  0.351726465  0.162031774
     0.475069114  0.913831771  0.151582447
     0.957990007  0.042122683  0.894360834
     0.593335918  0.964969210  0.858686762
     0.778008536  0.695775710  0.746234944
     0.854211816  0.777445530  0.851504820
     0.175389926  0.400260800  0.063420130
     0.843394664  0.005834927  0.744675096
     0.597831806  0.050740596  0.975990704
     0.939468999  0.283466161  0.236897875
     0.221546986  0.510593230  0.968875139
     0.864443190  0.521490738  0.901376834
     0.285977528  0.883147941  0.212619328
     0.333316990  0.603824428  0.769191271
     0.315082954  0.568499194  0.206505385
     0.623196740  0.641841586  0.062729150
     0.724832999  0.228983175  0.892515566
     0.428343041  0.129001671  0.258333847
     0.975724061  0.511942608  0.985787881
     0.191064885  0.092773207  0.066743271
     0.903033471  0.720218240  0.208882992
     0.099787215  0.070879692  0.978579389
     0.926068117  0.458878462  0.804261317
     0.313625415  0.074226605  0.923543280
     0.102329527  0.930977412  0.782091552
     0.979212097  0.485337657  0.126507382
     0.000317821  0.954310832  0.115485225
     0.731816960  0.271654264  0.791842266
     0.531345127  0.371134734  0.213207092
     0.627939167  0.328315612  0.039082176
     0.511636787  0.353114560  0.009385311
     0.556617363  0.821748398  0.060432522
     0.487348736  0.938420057  0.086898508
     0.121146381  0.766018519  0.818837605
     0.437939331  0.689001492  0.895472641
     0.464057689  0.067549177  0.757827607
     0.459333013  0.045355155  0.811303868
     0.834297369  0.881218957  0.992017320
     0.708117644  0.892188204  0.959828016
     0.612381560  0.493889411  0.241644794
     0.173073444  0.309508586  0.760436205
     0.915665151  0.703413076  0.025293976
     0.675052799  0.032134212  0.090806759
     0.680942127  0.697155834  0.126030466
     0.579673704  0.657707310  0.246745167
     0.426939740  0.290443071  0.114309033
     0.741251520  0.004199100  0.202124533
     0.677278555  0.032357172  0.246626021
     0.219201906  0.746154765  0.887713223
     0.675983731  0.579659745  0.161867824
     0.409172157  0.889430235  0.175334961
     0.477940802  0.383129963  0.934379250
     0.382525219  0.234338555  0.937259992
     0.300645622  0.239121160  0.783226591
     0.936440512  0.790639827  0.069769046
     0.250681997  0.221918584  0.186038842
     0.236715061  0.369574693  0.213725825
     0.720353876  0.191635582  0.115446063
     0.212023672  0.626360748  0.818177158
     0.981968405  0.886870403  0.211802233
     0.255424424  0.523754504  0.102243437
     0.309907605  0.690341760  0.108219317
     0.760659082  0.125922584  0.994831685
     0.820575000  0.140557356  0.039948057
     0.073207533  0.111116662  0.863452597
     0.160504878  0.228941043  0.836938488
     0.991156426  0.058262154  0.226390469
     0.284083121  0.877992976  0.912777005
     0.588607297  0.536246214  0.811685533
     0.502968471  0.600108799  0.773887411
     0.424254436  0.136661810  0.143032153
     0.830874419  0.407713694  0.146064566
     0.803748209  0.307651341  0.188376292
     0.556523678  0.899059214  0.165100030
     0.941711519  0.987168470  0.923566512
     0.629765529  0.005105989  0.886332591
     0.782519216  0.803878534  0.748856818
     0.658883776  0.903476292  0.846018799
     0.874980274  0.098142023  0.889568447
     0.702209580  0.638612189  0.757824288
     0.925328500  0.844502212  0.864836548
     0.877606409  0.684908948  0.870452003
     0.183562206  0.287451665  0.068109633
     0.923941963  0.003568252  0.759772440
     0.546237078  0.002433856  0.000292355
     0.204890801  0.421107266  0.033804909
     0.537018486  0.052509705  0.951872788
     0.942382106  0.305857864  0.268238887
     0.033625672  0.291865327  0.229298093
     0.240572905  0.614856305  0.962605874
     0.778678136  0.556313798  0.910400725
     0.291234729  0.446549588  0.955350918
     0.902118318  0.531890627  0.930974134
     0.241532436  0.091613539  0.943579039
     0.192488895  0.923473276  0.217481409
     0.346257337  0.893415740  0.238584835
     0.305554709  0.496432163  0.772934908
     0.289390616  0.575890597  0.173912512
     0.707949012  0.641166328  0.048325441
     0.320721798  0.681794561  0.210226453
     0.308280446  0.638171506  0.739567421
     0.577799020  0.544155732  0.053370390
     0.754611970  0.333997803  0.895290105
     0.707591037  0.227385557  0.860170277
     0.799148775  0.091798467  0.757548826
     0.971023052  0.415174558  0.000281199
     0.272513532  0.118204370  0.084577321
     0.069766636  0.514420453  0.975794893
     0.481560983  0.201672221  0.237368153
     0.129236810  0.060335072  0.090460605
     0.827366660  0.711995575  0.189213300
     0.850574870  0.751965630  0.236019714
     0.580365986  0.711203029  0.880949453
     0.144035076  0.080110348  0.005784516
     0.900456644  0.548782334  0.785868377
     0.016066069  0.074716936  0.988001539
     0.983124789  0.508627806  0.824217424
     0.276818106  0.114117520  0.896521390
     0.335430324  0.148494204  0.250160904
     0.163012674  0.893415740  0.759659600
     0.154950844  0.002361093  0.801061967
     0.036310188  0.480265818  0.101181412
     0.019814056  0.541393208  0.149100297
     0.925450783  0.014547747  0.108204714
     0.013981531  0.956154413  0.148066150
     0.678799208  0.322544602  0.771365103
     0.808602072  0.337048422  0.798523065
     0.463251013  0.434908499  0.202491595
     0.604878881  0.350662905  0.191523535

  ion indices of the primitive-cell ions
   primitive index   ion index
                 1           1
                 2           2
                 3           3
                 4           4
                 5           5
                 6           6
                 7           7
                 8           8
                 9           9
                10          10
                11          11
                12          12
                13          13
                14          14
                15          15
                16          16
                17          17
                18          18
                19          19
                20          20
                21          21
                22          22
                23          23
                24          24
                25          25
                26          26
                27          27
                28          28
                29          29
                30          30
                31          31
                32          32
                33          33
                34          34
                35          35
                36          36
                37          37
                38          38
                39          39
                40          40
                41          41
                42          42
                43          43
                44          44
                45          45
                46          46
                47          47
                48          48
                49          49
                50          50
                51          51
                52          52
                53          53
                54          54
                55          55
                56          56
                57          57
                58          58
                59          59
                60          60
                61          61
                62          62
                63          63
                64          64
                65          65
                66          66
                67          67
                68          68
                69          69
                70          70
                71          71
                72          72
                73          73
                74          74
                75          75
                76          76
                77          77
                78          78
                79          79
                80          80
                81          81
                82          82
                83          83
                84          84
                85          85
                86          86
                87          87
                88          88
                89          89
                90          90
                91          91
                92          92
                93          93
                94          94
                95          95
                96          96
                97          97
                98          98
                99          99
               100         100
               101         101
               102         102
               103         103
               104         104
               105         105
               106         106
               107         107
               108         108
               109         109
               110         110
               111         111
               112         112
               113         113
               114         114
               115         115
               116         116
               117         117
               118         118
               119         119
               120         120
               121         121
               122         122
               123         123
               124         124
               125         125
               126         126
               127         127
               128         128
               129         129
               130         130
               131         131
               132         132
               133         133
               134         134
               135         135
               136         136
               137         137
               138         138
               139         139
               140         140
               141         141
               142         142
               143         143
               144         144
               145         145
               146         146
               147         147
               148         148
               149         149
               150         150
               151         151
               152         152
               153         153
               154         154
               155         155
               156         156
               157         157
               158         158
               159         159
               160         160
               161         161
               162         162
               163         163
               164         164
               165         165
               166         166
               167         167
               168         168
               169         169
               170         170
               171         171
               172         172
               173         173
               174         174
               175         175
               176         176
               177         177
               178         178
               179         179
               180         180
               181         181
               182         182
               183         183
               184         184
               185         185
               186         186
               187         187
               188         188
               189         189
               190         190
               191         191
               192         192
               193         193
               194         194
               195         195
               196         196
               197         197
               198         198
               199         199
               200         200
               201         201
               202         202
               203         203
               204         204
               205         205
               206         206
               207         207
               208         208
               209         209
               210         210
               211         211
               212         212
               213         213
               214         214
               215         215
               216         216
               217         217
               218         218
               219         219
               220         220
               221         221
               222         222
               223         223
               224         224
               225         225
               226         226
               227         227
               228         228
               229         229
               230         230
               231         231
               232         232
               233         233
               234         234
               235         235
               236         236
               237         237
               238         238
               239         239
               240         240
               241         241
               242         242
               243         243
               244         244
               245         245
               246         246

----------------------------------------------------------------------------------------

 
 
 KPOINTS: KPOINTS created by Atomic Simulation Env

Automatic generation of k-mesh.
 Grid dimensions read from file:
 generate k-points for:    2    2    1

 Generating k-lattice:

  Cartesian coordinates                     Fractional coordinates (reciprocal lattice)
     0.049307831  0.000000000  0.000000000     0.500000000  0.000000000  0.000000000
     0.000000000  0.056935779  0.000000000     0.000000000  0.500000000  0.000000000
     0.000000000  0.000000000  0.033188271     0.000000000  0.000000000  1.000000000

  Length of vectors
     0.049307831  0.056935779  0.033188271

  Shift w.r.t. Gamma in fractional coordinates (k-lattice)
     0.500000000  0.500000000  0.000000000

 
 Subroutine IBZKPT returns following result:
 ===========================================
 
 Found      2 irreducible k-points:
 
 Following reciprocal coordinates:
            Coordinates               Weight
  0.250000  0.250000  0.000000      2.000000
 -0.250000  0.250000  0.000000      2.000000
 
 Following cartesian coordinates:
            Coordinates               Weight
  0.024654  0.028468  0.000000      2.000000
 -0.024654  0.028468  0.000000      2.000000
 


--------------------------------------------------------------------------------------------------------




 Dimension of arrays:
   k-points           NKPTS =      2   k-points in BZ     NKDIM =      2   number of bands    NBANDS=    874
   number of dos      NEDOS =    301   number of ions     NIONS =    246
   non local maximal  LDIM  =      6   non local SUM 2l+1 LMDIM =     18
   total plane-waves  NPLWV = ******
   max r-space proj   IRMAX =   8746   max aug-charges    IRDMAX=  24571
   dimension x,y,z NGX =    96 NGY =   84 NGZ =  280
   dimension x,y,z NGXF=   192 NGYF=  168 NGZF=  560
   support grid    NGXF=   192 NGYF=  168 NGZF=  560
   ions per type =              96  50 100
   NGX,Y,Z   is equivalent  to a cutoff of  15.74, 15.90, 15.45 a.u.
   NGXF,Y,Z  is equivalent  to a cutoff of  31.48, 31.80, 30.90 a.u.

 SYSTEM =  unknown system                          
 POSCAR =  Cu O  H                                 

 Startparameter for this run:
   NWRITE =      2    write-flag & timer
   PREC   = accura    normal or accurate (medium, high low for compatibility)
   ISTART =      0    job   : 0-new  1-cont  2-samecut
   ICHARG =      2    charge: 1-file 2-atom 10-const
   ISPIN  =      1    spin polarized calculation?
   LNONCOLLINEAR =      F non collinear calculations
   LSORBIT =      F    spin-orbit coupling
   INIWAV =      1    electr: 0-lowe 1-rand  2-diag
   LASPH  =      T    aspherical Exc in radial PAW
 Electronic Relaxation 1
   ENCUT  =  800.0 eV  58.80 Ry    7.67 a.u.  23.39 20.25 69.49*2*pi/ulx,y,z
   ENINI  =  800.0     initial cutoff
   ENAUG  = 1000.0 eV  augmentation charge cutoff
   NELM   =    160;   NELMIN=  2; NELMDL= -5     # of ELM steps 
   EDIFF  = 0.1E-06   stopping-criterion for ELM
   LREAL  =      T    real-space projection
   NLSPLINE    = F    spline interpolate recip. space projectors
   LCOMPAT=      F    compatible to vasp.4.4
   GGA_COMPAT  = T    GGA compatible to vasp.4.4-vasp.4.6
   LMAXPAW     = -100 max onsite density
   LMAXMIX     =    2 max onsite mixed and CHGCAR
   VOSKOWN=      0    Vosko Wilk Nusair interpolation
   ROPT   =   -0.00025  -0.00025  -0.00025
 Ionic relaxation
   EDIFFG = 0.1E-05   stopping-criterion for IOM
   NSW    =      0    number of steps for IOM
   NBLOCK =      1;   KBLOCK =      1    inner block; outer block 
   IBRION =     -1    ionic relax: 0-MD 1-quasi-New 2-CG
   NFREE  =      0    steps in history (QN), initial steepest desc. (CG)
   ISIF   =      2    stress and relaxation
   IWAVPR =     10    prediction:  0-non 1-charg 2-wave 3-comb
   ISYM   =      2    0-nonsym 1-usesym 2-fastsym
   LCORR  =      T    Harris-Foulkes like correction to forces

   POTIM  = 0.5000    time-step for ionic-motion
   TEIN   =    0.0    initial temperature
   TEBEG  =    0.0;   TEEND  =   0.0 temperature during run
   SMASS  =  -3.00    Nose mass-parameter (am)
   estimated Nose-frequenzy (Omega)   =  0.10E-29 period in steps = 0.13E+47 mass=  -0.235E-26a.u.
   SCALEE = 1.0000    scale energy and forces
   NPACO  =    256;   APACO  = 10.0  distance and # of slots for P.C.
   PSTRESS=    0.0 pullay stress

  Mass of Ions in am
   POMASS =  63.55 16.00  1.00
  Ionic Valenz
   ZVAL   =  11.00  6.00  1.00
  Atomic Wigner-Seitz radii
   RWIGS  =  -1.00 -1.00 -1.00
  virtual crystal weights 
   VCA    =   1.00  1.00  1.00
   NELECT =    1456.0000    total number of electrons
   NUPDOWN=      -1.0000    fix difference up-down

 DOS related values:
   EMIN   =  10.00;   EMAX   =-10.00  energy-range for DOS
   EFERMI =   0.00;   METHOD = LEGACY      
   ISMEAR =     0;   SIGMA  =   0.10  broadening in eV -4-tet -1-fermi 0-gaus

 Electronic relaxation 2 (details)
   IALGO  =     68    algorithm
   LDIAG  =      T    sub-space diagonalisation (order eigenvalues)
   LSUBROT=      F    optimize rotation matrix (better conditioning)
   TURBO    =      0    0=normal 1=particle mesh
   IRESTART =      0    0=no restart 2=restart with 2 vectors
   NREBOOT  =      0    no. of reboots
   NMIN     =      0    reboot dimension
   EREF     =   0.00    reference energy to select bands
   IMIX   =      4    mixing-type and parameters
     AMIX     =   0.40;   BMIX     =  1.00
     AMIX_MAG =   1.60;   BMIX_MAG =  1.00
     AMIN     =   0.10
     WC   =   100.;   INIMIX=   1;  MIXPRE=   1;  MAXMIX= -45

 Intra band minimization:
   WEIMIN = 0.0000     energy-eigenvalue tresh-hold
   EBREAK =  0.29E-10  absolut break condition
   DEPER  =   0.30     relativ break condition  

   TIME   =   0.40     timestep for ELM

  volume/ion in A,a.u.               =      10.91        73.61
  Fermi-wavevector in a.u.,A,eV,Ry     =   1.335295  2.523342 24.259360  1.783013
  Thomas-Fermi vector in A             =   2.464010
 
 Write flags
   LWAVE        =      T    write WAVECAR
   LDOWNSAMPLE  =      F    k-point downsampling of WAVECAR
   LCHARG       =      T    write CHGCAR
   LVTOT        =      F    write LOCPOT, total local potential
   LVHAR        =      T    write LOCPOT, Hartree potential only
   WRT_POTENTIAL=  hartree ionic  ! write potential to hdf5 file
   LELF         =      F    write electronic localiz. function (ELF)
   LORBIT       =      0    0 simple, 1 ext, 2 COOP (PROOUT), +10 PAW based schemes


 Dipole corrections
   LMONO      =      F    monopole corrections only (constant potential shift)
   LDIPOL     =      F    correct potential (dipole corrections)
   IDIPOL     =      0    1-x, 2-y, 3-z, 4-all directions 
   EPSILON    =  1.0000000 bulk dielectric constant
   LVACPOTAV  =      F  vacuum potentials using an averaging scheme for the charge density
   VACPOTFLAT =  0.1000000 required flatness to determine vacuum potential
 Exchange correlation treatment:
   METAGGA = R2SCAN    functional components
   XC_C    = 1    coefficients multiplying the functional components
   LIBXC   =     F    Libxc                    
   VOSKOWN =     0    Vosko Wilk Nusair interpolation
   LHFCALC =     F    Hartree Fock is set to
   LHFONE  =     F    Hartree Fock one center treatment
   AEXX    =    0.0000 exact exchange contribution

 Parameters of functionals:
   R2SCAN:
     No parameter
 
 Accuracy and mixing parameters for tau-dependent meta-GGA functionals:
   LMAXTAU = 6
   LMIXTAU = T
 
 Van der Waals corrections
   IVDW    =     0    specifies the selected vdW correction

 Linear response parameters
   LEPSILON=     F    determine dielectric tensor
   LRPA    =     F    only Hartree local field effects (RPA)
   LNABLA  =     F    use nabla operator in PAW spheres
   LVEL    =     F    velocity operator in full k-point grid
   CSHIFT  =0.1000    complex shift for real part using Kramers Kronig
   OMEGAMAX=  -1.0    maximum frequency
   DEG_THRESHOLD= 0.2000000E-02 threshold for treating states as degnerate
   RTIME   =   -0.100 relaxation time in fs
  (WPLASMAI=    0.000 imaginary part of plasma frequency in eV, 0.658/RTIME)
   DFIELD  = 0.0000000 0.0000000 0.0000000 field for delta impulse in time
 
  Optional k-point grid parameters
   LKPOINTS_OPT  =     F    use optional k-point grid
   KPOINTS_OPT_MODE=     1    mode for optional k-point grid
 
 Orbital magnetization related:
   ORBITALMAG=     F  switch on orbital magnetization
   LCHIMAG   =     F  perturbation theory with respect to B field
   DQ        =  0.001000  dq finite difference perturbation B field
   LLRAUG    =     F  two centre corrections for induced B field
   LBONE     =     F  B-component reconstruction in AE one-centre
   LVGVCALC  =     T  calculate vGv susceptibility
   LVGVAPPL  =     F  apply vGv susceptibility instead of pGv for G=0

 Random number generation:
   RANDOM_GENERATOR = DEFAULT
   PCG_SEED         = not used


--------------------------------------------------------------------------------------------------------


 Static calculation
 charge density and potential will be updated during run
 non-spin polarized calculation
 RMM-DIIS sequential band-by-band and
  variant of blocked Davidson during initial phase
 perform sub-space diagonalisation
    before iterative eigenvector-optimisation
 modified Broyden-mixing scheme, WC =      100.0
 initial mixing is a Kerker type mixing with AMIX =  0.4000 and BMIX =      1.0000
 Hartree-type preconditioning will be used
 using additional bands           146
 real space projection scheme for non local part
 use partial core corrections
 calculate Harris-corrections to forces 
   (improved forces if not selfconsistent)
 use gradient corrections 
 use of overlap-Matrix (Vanderbilt PP)
 Gauss-broadening in eV      SIGMA  =   0.10


--------------------------------------------------------------------------------------------------------


  energy-cutoff  :      800.00
  volume of cell :     2683.21
      direct lattice vectors                 reciprocal lattice vectors
    10.140377178  0.000000000  0.000000000     0.098615661  0.000000000  0.000000000
     0.000000000  8.781824240  0.000000000     0.000000000  0.113871557  0.000000000
     0.000000000  0.000000000 30.131127158     0.000000000  0.000000000  0.033188271

  length of vectors
    10.140377178  8.781824240 30.131127158     0.098615661  0.113871557  0.033188271


 
 k-points in units of 2pi/SCALE and weight: KPOINTS created by Atomic Simulation Env
   0.02465392  0.02846789  0.00000000       0.500
  -0.02465392  0.02846789  0.00000000       0.500
 
 k-points in reciprocal lattice and weights: KPOINTS created by Atomic Simulation Env
   0.25000000  0.25000000  0.00000000       0.500
  -0.25000000  0.25000000  0.00000000       0.500
 
 position of ions in fractional coordinates (direct lattice) 
   0.69617332  0.12325571  0.32825921
   0.95064906  0.10902803  0.32847693
   0.19889497  0.11319459  0.33364168
   0.44745081  0.12339464  0.33132614
   0.82364491  0.36135317  0.32788883
   0.07891521  0.37141600  0.33289495
   0.31410173  0.37502231  0.32870825
   0.58012635  0.37831434  0.33146055
   0.93976682  0.61270072  0.32869630
   0.18703644  0.61774181  0.32806307
   0.44525070  0.62570826  0.33413619
   0.69922153  0.61645165  0.32429022
   0.06749512  0.85767829  0.32788949
   0.31478316  0.86082001  0.33012837
   0.56615547  0.87131099  0.33640295
   0.82519416  0.87054122  0.32815998
   0.57711759  0.19318424  0.39705119
   0.82906679  0.20742046  0.39868074
   0.07714181  0.20299085  0.39527894
   0.32684978  0.20720069  0.39785767
   0.70151138  0.45498861  0.39874048
   0.94547075  0.45861997  0.39818955
   0.19839203  0.46695879  0.39856458
   0.44598341  0.44863572  0.39557763
   0.81804945  0.70492415  0.39757557
   0.06776720  0.71634433  0.39794396
   0.31319052  0.69856784  0.39552121
   0.57482280  0.68045543  0.39761539
   0.94042163  0.97044985  0.39746937
   0.19711890  0.96547480  0.39799374
   0.44322809  0.93591716  0.39775478
   0.69560923  0.94384262  0.39497693
   0.56249979  0.04166663  0.46565135
   0.81250035  0.04166663  0.46565135
   0.06250004  0.04166663  0.46565135
   0.31250021  0.04166663  0.46565135
   0.68750007  0.29166719  0.46565135
   0.93749964  0.29166719  0.46565135
   0.18749993  0.29166719  0.46565135
   0.43750049  0.29166719  0.46565135
   0.81250035  0.54166650  0.46565135
   0.06250004  0.54166650  0.46565135
   0.31250021  0.54166650  0.46565135
   0.56249979  0.54166650  0.46565135
   0.93749964  0.79166695  0.46565135
   0.18749993  0.79166695  0.46565135
   0.43750049  0.79166695  0.46565135
   0.68750007  0.79166695  0.46565135
   0.68750007  0.12500022  0.53434775
   0.93749964  0.12500022  0.53434775
   0.18749993  0.12500022  0.53434775
   0.43750049  0.12500022  0.53434775
   0.81250035  0.37499953  0.53434775
   0.06250004  0.37499953  0.53434775
   0.31250021  0.37499953  0.53434775
   0.56249979  0.37499953  0.53434775
   0.93749964  0.62499998  0.53434775
   0.18749993  0.62499998  0.53434775
   0.43750049  0.62499998  0.53434775
   0.68750007  0.62499998  0.53434775
   0.06250004  0.87500043  0.53434775
   0.31250021  0.87500043  0.53434775
   0.56249979  0.87500043  0.53434775
   0.81250035  0.87500043  0.53434775
   0.56052156  0.18755670  0.60074420
   0.80815732  0.20947356  0.60377761
   0.07095959  0.19335846  0.60186597
   0.31566479  0.20425711  0.60426548
   0.68909370  0.45619565  0.59919099
   0.94953569  0.44810280  0.60520139
   0.19636449  0.45314731  0.60434181
   0.45204038  0.44497133  0.60030612
   0.82943858  0.70101152  0.60870275
   0.08089620  0.69059228  0.60642272
   0.32327792  0.71162663  0.60191907
   0.56510324  0.70602643  0.60178300
   0.94683658  0.95569893  0.60361167
   0.19492667  0.95146860  0.60243017
   0.43280540  0.94772450  0.60511510
   0.69056603  0.95769282  0.60316031
   0.57338794  0.03399271  0.66921492
   0.81506830  0.03834875  0.67288887
   0.07372270  0.02250637  0.67112657
   0.31675252  0.03181059  0.67195628
   0.68706221  0.28186854  0.67005791
   0.94100149  0.27771565  0.66904898
   0.19265062  0.28195736  0.67458811
   0.43879729  0.28720456  0.67779409
   0.81545192  0.52035658  0.67357918
   0.07887675  0.54325501  0.67577625
   0.32381932  0.52723670  0.67560699
   0.56791576  0.53450512  0.66775796
   0.96148790  0.79432585  0.67156134
   0.19686546  0.77656872  0.66953353
   0.45024854  0.77159481  0.67271297
   0.69301860  0.78481530  0.67045617
   0.53487458  0.36574519  0.04014453
   0.54041777  0.93483652  0.06122506
   0.51187741  0.63380225  0.88394635
   0.40764657  0.06616826  0.78343900
   0.80041303  0.85080500  0.96294771
   0.22984549  0.31361479  0.78678437
   0.74975811  0.10929574  0.09631668
   0.64461014  0.58438997  0.25494898
   0.37403145  0.22322925  0.13186662
   0.65872895  0.02052318  0.21627568
   0.70025600  0.68242199  0.15747934
   0.41600228  0.32940422  0.95235070
   0.87421107  0.76997100  0.04661890
   0.20822598  0.26330862  0.21406435
   0.14435854  0.66984943  0.83655019
   0.03660712  0.98230957  0.21105682
   0.31199826  0.58668334  0.12049997
   0.83918772  0.16994305  0.00831691
   0.16316158  0.13512341  0.85323061
   0.26578104  0.76788146  0.91342418
   0.57511372  0.52658080  0.78033589
   0.76203773  0.35172647  0.16203177
   0.47506911  0.91383177  0.15158245
   0.95799001  0.04212268  0.89436083
   0.59333592  0.96496921  0.85868676
   0.77800854  0.69577571  0.74623494
   0.85421182  0.77744553  0.85150482
   0.17538993  0.40026080  0.06342013
   0.84339466  0.00583493  0.74467510
   0.59783181  0.05074060  0.97599070
   0.93946900  0.28346616  0.23689788
   0.22154699  0.51059323  0.96887514
   0.86444319  0.52149074  0.90137683
   0.28597753  0.88314794  0.21261933
   0.33331699  0.60382443  0.76919127
   0.31508295  0.56849919  0.20650538
   0.62319674  0.64184159  0.06272915
   0.72483300  0.22898318  0.89251557
   0.42834304  0.12900167  0.25833385
   0.97572406  0.51194261  0.98578788
   0.19106489  0.09277321  0.06674327
   0.90303347  0.72021824  0.20888299
   0.09978722  0.07087969  0.97857939
   0.92606812  0.45887846  0.80426132
   0.31362541  0.07422661  0.92354328
   0.10232953  0.93097741  0.78209155
   0.97921210  0.48533766  0.12650738
   0.00031782  0.95431083  0.11548523
   0.73181696  0.27165426  0.79184227
   0.53134513  0.37113473  0.21320709
   0.62793917  0.32831561  0.03908218
   0.51163679  0.35311456  0.00938531
   0.55661736  0.82174840  0.06043252
   0.48734874  0.93842006  0.08689851
   0.12114638  0.76601852  0.81883761
   0.43793933  0.68900149  0.89547264
   0.46405769  0.06754918  0.75782761
   0.45933301  0.04535516  0.81130387
   0.83429737  0.88121896  0.99201732
   0.70811764  0.89218820  0.95982802
   0.61238156  0.49388941  0.24164479
   0.17307344  0.30950859  0.76043621
   0.91566515  0.70341308  0.02529398
   0.67505280  0.03213421  0.09080676
   0.68094213  0.69715583  0.12603047
   0.57967370  0.65770731  0.24674517
   0.42693974  0.29044307  0.11430903
   0.74125152  0.00419910  0.20212453
   0.67727855  0.03235717  0.24662602
   0.21920191  0.74615476  0.88771322
   0.67598373  0.57965975  0.16186782
   0.40917216  0.88943024  0.17533496
   0.47794080  0.38312996  0.93437925
   0.38252522  0.23433855  0.93725999
   0.30064562  0.23912116  0.78322659
   0.93644051  0.79063983  0.06976905
   0.25068200  0.22191858  0.18603884
   0.23671506  0.36957469  0.21372582
   0.72035388  0.19163558  0.11544606
   0.21202367  0.62636075  0.81817716
   0.98196840  0.88687040  0.21180223
   0.25542442  0.52375450  0.10224344
   0.30990760  0.69034176  0.10821932
   0.76065908  0.12592258  0.99483168
   0.82057500  0.14055736  0.03994806
   0.07320753  0.11111666  0.86345260
   0.16050488  0.22894104  0.83693849
   0.99115643  0.05826215  0.22639047
   0.28408312  0.87799298  0.91277700
   0.58860730  0.53624621  0.81168553
   0.50296847  0.60010880  0.77388741
   0.42425444  0.13666181  0.14303215
   0.83087442  0.40771369  0.14606457
   0.80374821  0.30765134  0.18837629
   0.55652368  0.89905921  0.16510003
   0.94171152  0.98716847  0.92356651
   0.62976553  0.00510599  0.88633259
   0.78251922  0.80387853  0.74885682
   0.65888378  0.90347629  0.84601880
   0.87498027  0.09814202  0.88956845
   0.70220958  0.63861219  0.75782429
   0.92532850  0.84450221  0.86483655
   0.87760641  0.68490895  0.87045200
   0.18356221  0.28745167  0.06810963
   0.92394196  0.00356825  0.75977244
   0.54623708  0.00243386  0.00029236
   0.20489080  0.42110727  0.03380491
   0.53701849  0.05250970  0.95187279
   0.94238211  0.30585786  0.26823889
   0.03362567  0.29186533  0.22929809
   0.24057291  0.61485630  0.96260587
   0.77867814  0.55631380  0.91040072
   0.29123473  0.44654959  0.95535092
   0.90211832  0.53189063  0.93097413
   0.24153244  0.09161354  0.94357904
   0.19248890  0.92347328  0.21748141
   0.34625734  0.89341574  0.23858483
   0.30555471  0.49643216  0.77293491
   0.28939062  0.57589060  0.17391251
   0.70794901  0.64116633  0.04832544
   0.32072180  0.68179456  0.21022645
   0.30828045  0.63817151  0.73956742
   0.57779902  0.54415573  0.05337039
   0.75461197  0.33399780  0.89529011
   0.70759104  0.22738556  0.86017028
   0.79914878  0.09179847  0.75754883
   0.97102305  0.41517456  0.00028120
   0.27251353  0.11820437  0.08457732
   0.06976664  0.51442045  0.97579489
   0.48156098  0.20167222  0.23736815
   0.12923681  0.06033507  0.09046061
   0.82736666  0.71199558  0.18921330
   0.85057487  0.75196563  0.23601971
   0.58036599  0.71120303  0.88094945
   0.14403508  0.08011035  0.00578452
   0.90045664  0.54878233  0.78586838
   0.01606607  0.07471694  0.98800154
   0.98312479  0.50862781  0.82421742
   0.27681811  0.11411752  0.89652139
   0.33543032  0.14849420  0.25016090
   0.16301267  0.89341574  0.75965960
   0.15495084  0.00236109  0.80106197
   0.03631019  0.48026582  0.10118141
   0.01981406  0.54139321  0.14910030
   0.92545078  0.01454775  0.10820471
   0.01398153  0.95615441  0.14806615
   0.67879921  0.32254460  0.77136510
   0.80860207  0.33704842  0.79852306
   0.46325101  0.43490850  0.20249160
   0.60487888  0.35066291  0.19152354
 
 position of ions in cartesian coordinates  (Angst):
   7.05946000  1.08241000  9.89082000
   9.63994000  0.95746500  9.89738000
   2.01687000  0.99405500 10.05300000
   4.53732000  1.08363000  9.98323000
   8.35207000  3.17334000  9.87966000
   0.80023000  3.26171000 10.03050000
   3.18511000  3.29338000  9.90435000
   5.88270000  3.32229000  9.98728000
   9.52959000  5.38063000  9.90399000
   1.89662000  5.42490000  9.88491000
   4.51501000  5.49486000 10.06790000
   7.09037000  5.41357000  9.77123000
   0.68442600  7.53198000  9.87968000
   3.19202000  7.55957000  9.94714000
   5.74103000  7.65170000 10.13620000
   8.36778000  7.64494000  9.88783000
   5.85219000  1.69651000 11.96360000
   8.40705000  1.82153000 12.01270000
   0.78224700  1.78263000 11.91020000
   3.31438000  1.81960000 11.98790000
   7.11359000  3.99563000 12.01450000
   9.58743000  4.02752000 11.99790000
   2.01177000  4.10075000 12.00920000
   4.52244000  3.93984000 11.91920000
   8.29533000  6.19052000 11.97940000
   0.68718500  6.29081000 11.99050000
[...]
      0.63377      0.36591     14.03060         0.081159      0.002896      0.057123
      3.16887      0.36591     14.03060         0.144738     -0.014628      0.193526
      6.97151      2.56137     14.03060         0.043043     -0.096048      0.031427
      9.50660      2.56137     14.03060         0.232936      0.011715      0.155567
      1.90132      2.56137     14.03060         0.066103     -0.037200     -0.066020
      4.43642      2.56137     14.03060         0.153186     -0.006900      0.108665
      8.23906      4.75682     14.03060         0.114728      0.014072      0.259351
      0.63377      4.75682     14.03060         0.052213      0.048154      0.101099
      3.16887      4.75682     14.03060         0.237282     -0.028011      0.173139
      5.70396      4.75682     14.03060        -0.015286     -0.267552      0.291775
      9.50660      6.95228     14.03060         0.002505      0.047505     -0.020221
      1.90132      6.95228     14.03060         0.138249      0.018697      0.023076
      4.43642      6.95228     14.03060         0.020004     -0.247244      0.075725
      6.97151      6.95228     14.03060        -0.010479     -0.013991      0.010921
      6.97151      1.09773     16.10050         0.112706     -0.038172     -0.173430
      9.50660      1.09773     16.10050        -0.049938      0.004754      0.029449
      1.90132      1.09773     16.10050         0.130636     -0.021749     -0.116681
      4.43642      1.09773     16.10050        -0.153000     -0.089824     -0.110718
      8.23906      3.29318     16.10050         0.218869     -0.026152     -0.063490
      0.63377      3.29318     16.10050         0.064200     -0.000314      0.144232
      3.16887      3.29318     16.10050        -0.025700     -0.045919      0.036667
      5.70396      3.29318     16.10050         0.160442     -0.204128     -0.482016
      9.50660      5.48864     16.10050         0.049522      0.030691      0.358521
      1.90132      5.48864     16.10050         0.034658     -0.025487      0.072913
      4.43642      5.48864     16.10050         0.080448     -0.037696     -0.135241
      6.97151      5.48864     16.10050         0.162795      0.192878     -0.070990
      0.63377      7.68410     16.10050        -0.003078     -0.124485      0.128418
      3.16887      7.68410     16.10050         0.061759      0.026587     -0.211499
      5.70396      7.68410     16.10050        -0.000347      0.097630      0.093185
      8.23906      7.68410     16.10050         0.053208     -0.094744      0.216509
      5.68390      1.64709     18.10110         0.000106      0.779482      0.485013
      8.19502      1.83956     18.19250         0.450689     -0.371913     -0.230683
      0.71956      1.69804     18.13490        -0.248843      0.568023      0.397966
      3.20096      1.79375     18.20720         0.081998      0.001249      0.110709
      6.98767      4.00623     18.05430         0.519814      0.021277      0.813627
      9.62865      3.93516     18.23540        -0.258009      0.199012     -0.100693
      1.99121      3.97946     18.20950         0.238469     -0.276019      0.091281
      4.58386      3.90766     18.08790        -0.908913      0.241930      0.699750
      8.41082      6.15616     18.34090        -0.310271      0.000664     -0.604628
      0.82032      6.06466     18.27220        -0.818372      0.483319     -0.799498
      3.27816      6.24938     18.13650        -0.203405     -1.039129      0.180327
      5.73036      6.20020     18.13240         0.446137      0.009446      0.185465
      9.60128      8.39278     18.18750        -0.506294     -0.183679     -0.022418
      1.97663      8.35563     18.15190        -0.312548     -0.028727     -0.003502
      4.38881      8.32275     18.23280         0.672587      0.391483     -0.234966
      7.00260      8.41029     18.17390         0.430229     -0.586219     -0.039390
      5.81437      0.29852     20.16420        -0.715772     -0.027384      0.313900
      8.26510      0.33677     20.27490         0.425313     -0.295904     -0.063771
      0.74758      0.19765     20.22180         0.271353      1.006426     -0.042275
      3.21199      0.27935     20.24680         0.241007      0.010292      0.112807
      6.96707      2.47532     20.18960        -0.206083      0.212405     -0.078525
      9.54211      2.43885     20.15920         0.418583      0.130586      0.207093
      1.95355      2.47610     20.32610        -0.180721      0.001276     -0.426178
      4.44957      2.52218     20.42270         0.291505     -0.404114     -0.645907
      8.26899      4.56968     20.29570         0.235725      0.375074     -0.282776
      0.79984      4.77077     20.36190        -0.480015     -0.820414     -0.184710
      3.28365      4.63010     20.35680        -0.140777      0.134118     -0.763241
      5.75888      4.69393     20.12030         0.138974     -0.376442      0.152962
      9.74985      6.97563     20.23490        -0.814353     -0.791583     -0.077080
      1.99629      6.81969     20.17380         0.870412      0.439467      0.498466
      4.56569      6.77601     20.26960        -0.409681      0.591767     -0.153483
      7.02747      6.89211     20.20160         0.145115     -0.238499      0.068080
      5.42383      3.21191      1.20960         1.932124     -0.501762      0.254272
      5.48004      8.20957      1.84478         0.788199     -1.122815     -0.858338
      5.19063      5.56594     26.63430         1.415470     -0.263062     -0.189058
      4.13369      0.58108     23.60590        -0.058315     -0.041056      1.617359
      8.11649      7.47162     29.01470        -0.781018      0.274104     -0.531385
      2.33072      2.75411     23.70670        -0.232911      0.727747     -0.441420
      7.60283      0.95982      2.90213        -0.975921     -1.378843     -0.337448
      6.53659      5.13201      7.68190         1.276486      1.837087      0.943021
      3.79282      1.96036      3.97329        -0.790512     -0.544021      0.255179
      6.67976      0.18023      6.51663        -0.788955     -0.077469     -1.519022
      7.10086      5.99291      4.74503        -0.321721      1.107620     -0.737263
      4.21842      2.89277     28.69540        -0.319631     -0.300016      0.343225
      8.86483      6.76175      1.40468        -0.429285      0.101788     -0.272518
      2.11149      2.31233      6.45000         0.904628     -0.468648     -1.598102
      1.46385      5.88250     25.20620        -0.890510      1.635012     -0.600338
      0.37121      8.62647      6.35938         0.727237     -2.190663     -1.370457
      3.16378      5.15215      3.63080         0.182322      1.221735     -0.126669
      8.50968      1.49241      0.25060        -0.525352     -0.583075      1.513276
      1.65452      1.18663     25.70880         0.073828     -0.517714      0.042119
      2.69512      6.74340     27.52250         1.754422      1.005507      2.274982
      5.83187      4.62434     23.51240         0.284316      0.857202     -0.525192
      7.72735      3.08880      4.88220        -0.583647     -0.454525      0.227491
      4.81738      8.02511      4.56735        -2.439867      0.224032     -0.516584
      9.71438      0.36991     26.94810        -1.208620     -0.853196      1.573628
      6.01665      8.47419     25.87320        -1.324919      0.986883      1.110375
      7.88930      6.11018     22.48490         0.790989     -1.580367     -0.966296
      8.66203      6.82739     25.65680         1.949447     -0.304657      1.866180
      1.77852      3.51502      1.91092        -0.117346     -0.583413      0.852081
      8.55234      0.05124     22.43790        -1.621630     -0.281347     -0.871812
      6.06224      0.44559     29.40770        -0.668752     -0.786078      0.988901
      9.52657      2.48935      7.13800         0.524697     -0.341621     -0.948500
      2.24657      4.48394     29.19330         0.021786     -0.502735      0.508726
      8.76578      4.57964     27.15950        -0.600001     -0.002586      0.477783
      2.89992      7.75565      6.40646         0.297929     -0.106916      0.656574
      3.37996      5.30268     23.17660        -0.253183      0.079147      0.458216
      3.19506      4.99246      6.22224        -0.173212      1.129065     -1.290210
      6.31945      5.63654      1.89010        -0.803987     -0.851245     -0.041552
      7.35008      2.01089     26.89250        -0.206585      0.281913     -1.293454
      4.34356      1.13287      7.78389         0.401040      0.978618     -1.239622
      9.89421      4.49579     29.70290         0.044547      0.584874     -0.189075
      1.93747      0.81472      2.01105         1.385074      0.537913      1.582310
      9.15710      6.32483      6.29388        -0.897633      1.168166      2.186696
      1.01188      0.62245     29.48570         3.691307     -0.297543     -2.130786
      9.39068      4.02979     24.23330        -0.795892      0.984944     -1.864136
      3.18028      0.65184     27.82740         1.195536      0.142106      0.455920
      1.03766      8.17568     23.56530         0.583079      0.476258      0.573066
      9.92958      4.26215      3.81181        -1.227597     -0.717157     -0.584236
      0.00322      8.38059      3.47970         1.298920     -0.677616      0.725766
      7.42090      2.38562     23.85910         1.234731     -1.753837      1.271589
      5.38804      3.25924      6.42417         2.288845     -1.899352     -0.088483
      6.36754      2.88321      1.17759        -1.255855      0.227424      0.296004
      5.18819      3.10099      0.28279        -0.768610     -0.154812     -0.588072
      5.64431      7.21645      1.82090         0.373932      0.621008     -0.349071
      4.94190      8.24104      2.61835        -0.960945      0.387772      1.267962
      1.22847      6.72704     24.67250         0.206533     -1.495685      0.868762
      4.44087      6.05069     26.98160        -0.892305      0.386678      0.195006
      4.70572      0.59321     22.83420         0.456141     -0.098942      0.041413
      4.65781      0.39830     24.44550        -0.367073      0.219140     -1.585601
      8.46009      7.73871     29.89060        -0.654629     -0.174603     -0.321990
      7.18058      7.83504     28.92070         1.815452     -0.249283      0.672874
      6.20978      4.33725      7.28103        -0.610005     -1.715852     -0.486136
      1.75503      2.71805     22.91280         0.437391     -0.191128      0.432509
      9.28519      6.17725      0.76214         0.340585     -0.374003     -0.087549
      6.84529      0.28220      2.73611         1.172294      1.478866      0.072575
      6.90501      6.12230      3.79744         0.127522     -0.063576      0.058177
      5.87811      5.77587      7.43471        -0.340767      0.615704     -0.033591
      4.32933      2.55062      3.44426         0.454139      0.050671     -0.140161
      7.51657      0.03688      6.09024         0.728629     -0.051426     -0.183523
      6.86786      0.28415      7.43112         0.348632      0.099901      1.647778
      2.22279      6.55260     26.74780        -1.399381     -0.790994     -2.294767
      6.85473      5.09047      4.87726        -0.130116     -1.112113      0.340762
      4.14916      7.81082      5.28304         0.323725      0.508047     -0.833345
      4.84650      3.36458     28.15390         0.301250     -0.016983     -0.718147
      3.87895      2.05792     28.24070         0.640963      0.488795      0.200673
      3.04866      2.09992     23.59950        -0.021704     -0.343980     -0.241641
      9.49586      6.94326      2.10222         0.337702      0.037643      0.356253
      2.54201      1.94885      5.60556        -0.932436      0.790790      1.413227
      2.40038      3.24554      6.43980         0.022721      0.022111      0.233501
      7.30466      1.68291      3.47852         0.057711     -0.197363      0.149130
      2.15000      5.50059     24.65260         0.406007     -0.047657     -0.240099
      9.95753      7.78834      6.38184         0.311827      0.249616      0.054094
      2.59010      4.59952      3.08071        -0.189505     -0.319330     -0.665476
      3.14258      6.06246      3.26077         0.013673     -0.974483      0.314049
      7.71337      1.10583     29.97540         0.143886      0.256820     -0.480687
      8.32094      1.23435      1.20368         0.412482      0.562374     -0.955654
      0.74235      0.97581     26.01680         0.434270     -0.003554      0.456942
      1.62758      2.01052     25.21790         0.081259      0.412943     -0.475804
     10.05070      0.51165      6.82140        -0.859520      1.636926      1.065962
      2.88071      7.71038     27.50300        -0.143203     -0.527420      0.195991
      5.96870      4.70922     24.45700        -0.061870     -0.035849      0.480171
      5.10029      5.27005     23.31810         0.033077     -0.941675      0.198130
      4.30210      1.20014      4.30972         0.391466      0.091451     -0.266528
      8.42538      3.58047      4.40109         0.303251     -0.062932      0.154959
      8.15031      2.70174      5.67599         0.338141      0.366844     -0.289985
      5.64336      7.89538      4.97465         1.757844     -0.261693      0.930927
      9.54931      8.66914     27.82810         0.272348      0.871486     -1.703839
      6.38606      0.04484     26.70620         0.007851     -0.160244     -0.816073
      7.93504      7.05952     22.56390        -0.418147      0.838511      0.714315
      6.68133      7.93417     25.49150         1.533720     -0.834208     -0.462061
      8.87263      0.86187     26.80370         0.310552     -0.087690      0.282821
      7.12067      5.60818     22.83410        -0.382202      0.582129      0.369441
      9.38318      7.41627     26.05850        -1.624627     -0.292899     -1.030378
      8.89926      6.01475     26.22770        -0.818772      0.878710     -1.190990
      1.86139      2.52435      2.05222        -0.294270      0.832551     -0.447701
      9.36912      0.03134     22.89280         2.219386     -0.397182      0.812136
      5.53905      0.02137      0.00881         0.646925      0.506954     -0.316446
      2.07767      3.69809      1.01858         0.122663      0.206269     -0.617837
      5.44557      0.46113     28.68100        -0.462549      0.343460     -0.496657
      9.55611      2.68599      8.08234        -0.329226      0.152449      0.623415
      0.34098      2.56311      6.90901        -0.261149     -0.095773     -0.336255
      2.43950      5.39956     29.00440         0.299082      0.693002     -0.575972
      7.89609      4.88545     27.43140        -0.655907      0.289307     -0.455004
      2.95323      3.92152     28.78580        -0.130605      0.166564      0.274642
      9.14782      4.67097     28.05130         0.991211     -0.434863      0.446582
      2.44923      0.80453     28.43110        -0.928032     -0.301849      0.617098
      1.95191      8.10978      6.55296         1.129446     -0.230138      0.253203
      3.51118      7.84582      7.18883        -1.394980      0.452772     -0.611664
      3.09844      4.35958     23.28940         0.079187      0.266158     -0.325411
      2.93453      5.05737      5.24018         0.601405     -0.564836      0.850693
      7.17887      5.63061      1.45610         0.339526      0.338252      0.009073
      3.25224      5.98740      6.33436        -0.380556     -1.056572      0.623790
      3.12608      5.60431     22.28400        -0.220013     -0.139228      0.057818
      5.85910      4.77868      1.60811         0.404537      0.921715      0.335855
      7.65205      2.93311     26.97610         0.439624     -0.235210      0.393543
      7.17524      1.99686     25.91790        -0.087685     -0.209920      0.557454
      8.10367      0.80616     22.82580        -0.695337      0.842721      0.502531
      9.84654      3.64599      0.00847        -0.359491     -0.445806      0.122648
      2.76339      1.03805      2.54841        -1.032178     -0.418395     -0.792854
      0.70746      4.51755     29.40180        -0.359722     -0.106755      0.110113
      4.88321      1.77105      7.15217        -1.233617     -1.064914      1.498037
      1.31051      0.52985      2.72568        -0.072569     -0.303348     -0.572506
      8.38981      6.25262      5.70121        -0.101276     -0.246386     -0.980688
      8.62515      6.60363      7.11154         1.307948     -0.915974     -0.897055
      5.88513      6.24566     26.54400        -0.526452     -0.298056      0.028076
      1.46057      0.70352      0.17429         1.115729     -0.035582      1.527267
      9.13097      4.81931     23.67910         0.048307     -1.008406      0.413313
      0.16292      0.65615     29.76960        -4.729990      0.506659      0.910422
      9.96926      4.46668     24.83460         1.053780      0.415842      1.260985
      2.80704      1.00216     27.01320        -0.644097      0.080560     -1.320139
      3.40139      1.30405      7.53763         0.679675      0.210337      0.094150
      1.65301      7.84582     22.88940        -0.078228      0.245366      0.037318
      1.57126      0.02073     24.13690        -0.554482     -0.533772     -0.508950
      0.36820      4.21761      3.04871         0.413945     -0.148544     -0.363097
      0.20092      4.75442      4.49256         0.720866      0.836608      0.989463
      9.38442      0.12776      3.26033        -1.077970      0.597998      0.194434
      0.14178      8.39678      4.46140        -0.395447      0.317718     -0.760490
      6.88328      2.83253     23.24210        -1.095626      1.122628     -0.987877
      8.19953      2.95990     24.06040        -0.217376      0.073594     -0.183826
      4.69754      3.81929      6.10130        -1.147649      1.023959     -0.808764
      6.13370      3.07946      5.77082        -1.298907      0.540766      0.384746
 -----------------------------------------------------------------------------------
    total drift:                               -0.002814      0.007163      0.028597


--------------------------------------------------------------------------------------------------------



  FREE ENERGIE OF THE ION-ELECTRON SYSTEM (eV)
  ---------------------------------------------------
  free  energy   TOTEN  =     -1811.62801722 eV

  energy  without entropy=    -1811.40164598  energy(sigma->0) =    -1811.51483160
 


--------------------------------------------------------------------------------------------------------


    POTLOK:  cpu time     11.9439: real time     11.9689


--------------------------------------------------------------------------------------------------------


 writing wavefunctions
     LOOP+:  cpu time    766.7513: real time    768.4968
    4ORBIT:  cpu time      0.0000: real time      0.0000

 total amount of memory used by VASP MPI-rank0  3314054. kBytes
=======================================================================

   base      :      30000. kBytes
   nonlr-proj:     188975. kBytes
   fftplans  :     312780. kBytes
   grid      :     814785. kBytes
   one-center:       3825. kBytes
   wavefun   :    1963689. kBytes
 
  
  
 General timing and accounting informations for this job:
 ========================================================
  
                  Total CPU time used (sec):      834.889
                            User time (sec):      814.094
                          System time (sec):       20.795
                         Elapsed time (sec):      837.438
  
                   Maximum memory used (kb):     4944052.
                   Average memory used (kb):          N/A
  
                          Minor page faults:      4813211
                          Major page faults:         4016
                 Voluntary context switches:        23829
