246
Lattice="10.140377177804453 0.0 0.0 0.0 8.781824239934606 0.0 0.0 0.0 30.1311271579" Properties=species:S:1:pos:R:3:momenta:R:3:forces:R:3 target_atoms="0 1 2 3 4 5 6 7 8 9 10 11 12 13 14 15 16 17 18 19 20 21 22 23 24 25 26 27 28 29 30 31 32 33 34 35 36 37 38 39 40 41 42 43 44 45 46 47 48 49 50 51 52 53 54 55 56 57 58 59 60 61 62 63 64 65 66 67 68 69 70 71 72 73 74 75 76 77 78 79 80 81 82 83 84 85 86 87 88 89 90 91 92 93 94 95 96 97 98 99 100 101 102 103 104 105 106 107 108 109 110 111 112 113 114 115 116 117 118 119 120 121 122 123 124 125 126 127 128 129 130 131 132 133 134 135 136 137 138 139 140 141 142 143 144 145 146 147 148 149 150 151 152 153 154 155 156 157 158 159 160 161 162 163 164 165 166 167 168 169 170 171 172 173 174 175 176 177 178 179 180 181 182 183 184 185 186 187 188 189 190 191 192 193 194 195 196 197 198 199 200 201 202 203 204 205 206 207 208 209 210 211 212 213 214 215 216 217 218 219 220 221 222 223 224 225 226 227 228 229 230 231 232 233 234 235 236 237 238 239 240 241 242 243 244 245" step=0 energy=-1801.7475316861128 pbc="T T T"
Cu       6.91985000       1.06450000       9.93155000       0.00000000       0.00000000       0.00000000       0.18119400       0.30564800      -0.37889800
Cu       9.44955000       1.17375000       9.94613000       0.00000000       0.00000000       0.00000000       0.23084600      -0.25463000      -0.37007500
Cu       2.00157000       1.07766000       9.88873000       0.00000000       0.00000000       0.00000000      -0.70691700      -0.04175820       0.45237600
Cu       4.34781000       1.03035000       9.99904000       0.00000000       0.00000000       0.00000000       0.33407300       0.33258200      -0.29490200
Cu       8.12505000       3.36489000       9.86850000       0.00000000       0.00000000       0.00000000       0.52517700      -0.42304900      -0.11592400
Cu       0.62391000       3.27404000       9.96814000       0.00000000       0.00000000       0.00000000       0.04619790      -0.14090200      -0.00199776
Cu       3.23590000       3.32746000       9.85980000       0.00000000       0.00000000       0.00000000      -0.27954400      -0.64929700       0.31631400
Cu       5.66658000       3.34009000       9.89105000       0.00000000       0.00000000       0.00000000       0.10283600      -0.49739600       0.29700600
Cu       9.52234000       5.52038000       9.83486000       0.00000000       0.00000000       0.00000000       0.03349060      -0.27586500      -0.05647930
Cu       1.95975000       5.34041000       9.92604000       0.00000000       0.00000000       0.00000000      -0.36170300       0.54759000      -0.08324130
Cu       4.44511000       5.43470000       9.79723000       0.00000000       0.00000000       0.00000000       0.07034400       0.43153000       0.29726900
Cu       6.94750000       5.49891000       9.74656000       0.00000000       0.00000000       0.00000000      -0.05959830       0.22679800       0.43290500
Cu       0.51196000       7.78018000       9.97434000       0.00000000       0.00000000       0.00000000       0.81627100      -0.17986000      -0.16023000
Cu       3.15237000       7.52078000       9.85022000       0.00000000       0.00000000       0.00000000      -0.26204400       0.54983000       0.34763900
Cu       5.62274000       7.77380000       9.73138000       0.00000000       0.00000000       0.00000000       0.26382800      -0.70467100       0.42865100
Cu       8.22756000       7.60567000       9.92641000       0.00000000       0.00000000       0.00000000      -0.20214200       0.40216900      -0.62583700
Cu       5.70690000       1.66010000      11.93830000       0.00000000       0.00000000       0.00000000       0.10664100       0.99360700       0.23795200
Cu       8.30130000       1.79335000      11.90310000       0.00000000       0.00000000       0.00000000      -0.60402000       0.29352000       0.52551000
Cu       0.63025900       1.76421000      12.02300000       0.00000000       0.00000000       0.00000000       0.19906100       0.08358170      -0.44918600
Cu       3.18811000       1.91833000      12.07060000       0.00000000       0.00000000       0.00000000       0.02318940      -0.74486900      -0.75606200
Cu       7.05119000       4.00069000      11.91450000       0.00000000       0.00000000       0.00000000      -0.94933500       0.02394300       0.32686100
Cu       9.41298000       4.05261000      11.88400000       0.00000000       0.00000000       0.00000000       0.91034400      -0.37422900       0.35596900
Cu       1.90710000       3.94151000      12.01040000       0.00000000       0.00000000       0.00000000      -0.26217500       0.42076000      -0.27521000
Cu       4.45225000       4.07642000      12.02420000       0.00000000       0.00000000       0.00000000       0.06836650      -0.35731200      -0.47005800
Cu       8.30918000       6.20667000      11.91410000       0.00000000       0.00000000       0.00000000      -0.55804600      -0.17087500       0.24220300
Cu       0.64474200       6.16193000      11.87720000       0.00000000       0.00000000       0.00000000      -0.10523500       0.08251480       0.31073200
Cu       3.07680000       6.20352000      11.98200000       0.00000000       0.00000000       0.00000000       0.71805300      -0.29438300      -0.19766000
Cu       5.70075000       6.16366000      11.92030000       0.00000000       0.00000000       0.00000000       0.16559600       0.31662000      -0.18814800
Cu       9.44305000       8.38075000      11.95490000       0.00000000       0.00000000       0.00000000       0.58215200       0.15892700       0.34505900
Cu       1.92582000       8.31894000      12.10220000       0.00000000       0.00000000       0.00000000      -0.21264000       0.71290200      -1.14137000
Cu       4.44643000       8.34953000      11.97030000       0.00000000       0.00000000       0.00000000      -0.10735000      -0.12824900      -0.10985800
Cu       7.03965000       8.34856000      11.84420000       0.00000000       0.00000000       0.00000000      -0.74786000      -0.02605610       0.73426300
Cu       5.70396000       0.36590900      14.03060000       0.00000000       0.00000000       0.00000000       0.00000000       0.00000000       0.00000000
Cu       8.23906000       0.36590900      14.03060000       0.00000000       0.00000000       0.00000000       0.00000000       0.00000000       0.00000000
Cu       0.63377400       0.36590900      14.03060000       0.00000000       0.00000000       0.00000000       0.00000000       0.00000000       0.00000000
Cu       3.16887000       0.36590900      14.03060000       0.00000000       0.00000000       0.00000000       0.00000000       0.00000000       0.00000000
Cu       6.97151000       2.56137000      14.03060000       0.00000000       0.00000000       0.00000000       0.00000000       0.00000000       0.00000000
Cu       9.50660000       2.56137000      14.03060000       0.00000000       0.00000000       0.00000000       0.00000000       0.00000000       0.00000000
Cu       1.90132000       2.56137000      14.03060000       0.00000000       0.00000000       0.00000000       0.00000000       0.00000000       0.00000000
Cu       4.43642000       2.56137000      14.03060000       0.00000000       0.00000000       0.00000000       0.00000000       0.00000000       0.00000000
Cu       8.23906000       4.75682000      14.03060000       0.00000000       0.00000000       0.00000000       0.00000000       0.00000000       0.00000000
Cu       0.63377400       4.75682000      14.03060000       0.00000000       0.00000000       0.00000000       0.00000000       0.00000000       0.00000000
Cu       3.16887000       4.75682000      14.03060000       0.00000000       0.00000000       0.00000000       0.00000000       0.00000000       0.00000000
Cu       5.70396000       4.75682000      14.03060000       0.00000000       0.00000000       0.00000000       0.00000000       0.00000000       0.00000000
Cu       9.50660000       6.95228000      14.03060000       0.00000000       0.00000000       0.00000000       0.00000000       0.00000000       0.00000000
Cu       1.90132000       6.95228000      14.03060000       0.00000000       0.00000000       0.00000000       0.00000000       0.00000000       0.00000000
Cu       4.43642000       6.95228000      14.03060000       0.00000000       0.00000000       0.00000000       0.00000000       0.00000000       0.00000000
Cu       6.97151000       6.95228000      14.03060000       0.00000000       0.00000000       0.00000000       0.00000000       0.00000000       0.00000000
Cu       6.97151000       1.09773000      16.10050000       0.00000000       0.00000000       0.00000000       0.00000000       0.00000000       0.00000000
Cu       9.50660000       1.09773000      16.10050000       0.00000000       0.00000000       0.00000000       0.00000000       0.00000000       0.00000000
Cu       1.90132000       1.09773000      16.10050000       0.00000000       0.00000000       0.00000000       0.00000000       0.00000000       0.00000000
Cu       4.43642000       1.09773000      16.10050000       0.00000000       0.00000000       0.00000000       0.00000000       0.00000000       0.00000000
Cu       8.23906000       3.29318000      16.10050000       0.00000000       0.00000000       0.00000000       0.00000000       0.00000000       0.00000000
Cu       0.63377400       3.29318000      16.10050000       0.00000000       0.00000000       0.00000000       0.00000000       0.00000000       0.00000000
Cu       3.16887000       3.29318000      16.10050000       0.00000000       0.00000000       0.00000000       0.00000000       0.00000000       0.00000000
Cu       5.70396000       3.29318000      16.10050000       0.00000000       0.00000000       0.00000000       0.00000000       0.00000000       0.00000000
Cu       9.50660000       5.48864000      16.10050000       0.00000000       0.00000000       0.00000000       0.00000000       0.00000000       0.00000000
Cu       1.90132000       5.48864000      16.10050000       0.00000000       0.00000000       0.00000000       0.00000000       0.00000000       0.00000000
Cu       4.43642000       5.48864000      16.10050000       0.00000000       0.00000000       0.00000000       0.00000000       0.00000000       0.00000000
Cu       6.97151000       5.48864000      16.10050000       0.00000000       0.00000000       0.00000000       0.00000000       0.00000000       0.00000000
Cu       0.63377400       7.68410000      16.10050000       0.00000000       0.00000000       0.00000000       0.00000000       0.00000000       0.00000000
Cu       3.16887000       7.68410000      16.10050000       0.00000000       0.00000000       0.00000000       0.00000000       0.00000000       0.00000000
Cu       5.70396000       7.68410000      16.10050000       0.00000000       0.00000000       0.00000000       0.00000000       0.00000000       0.00000000
Cu       8.23906000       7.68410000      16.10050000       0.00000000       0.00000000       0.00000000       0.00000000       0.00000000       0.00000000
Cu       5.59690000       1.76725000      18.28600000       0.00000000       0.00000000       0.00000000       0.22430000      -0.00047221      -0.53521300
Cu       8.23482000       1.88193000      18.19860000       0.00000000       0.00000000       0.00000000      -0.29729900      -0.20021300      -0.12935500
Cu       0.59329700       1.92874000      18.18020000       0.00000000       0.00000000       0.00000000      -0.14707400      -0.11131400       0.33193800
Cu       3.03918000       1.91456000      18.24430000       0.00000000       0.00000000       0.00000000       0.34180000       0.19602700      -0.13511100
Cu       6.89930000       4.08959000      18.11930000       0.00000000       0.00000000       0.00000000      -0.05261560      -0.85618500       0.30255700
Cu       9.42235000       4.07951000      18.10320000       0.00000000       0.00000000       0.00000000       0.14606200      -0.34951300       0.44820900
Cu       1.79643000       4.16640000      18.15620000       0.00000000       0.00000000       0.00000000       0.67429000      -0.53349200      -0.10818900
Cu       4.36073000       3.90299000      18.10760000       0.00000000       0.00000000       0.00000000       0.17971300       0.93790200       0.45695000
Cu       8.13365000       6.13262000      18.13400000       0.00000000       0.00000000       0.00000000       0.37851300       0.76824200       0.31484100
Cu       0.53322100       6.27720000      18.04060000       0.00000000       0.00000000       0.00000000       0.12627900       0.33940000       0.67632700
Cu       3.00615000       6.41451000      18.28920000       0.00000000       0.00000000       0.00000000       0.60657700      -0.97948300      -0.73303000
Cu       5.66127000       6.17636000      18.07710000       0.00000000       0.00000000       0.00000000      -0.45549600       0.40929300       0.73935400
Cu       9.47347000       8.46433000      18.14760000       0.00000000       0.00000000       0.00000000       0.20959400       0.14935200       0.03211900
Cu       1.93837000       8.60993000      18.19090000       0.00000000       0.00000000       0.00000000      -0.97200100      -0.72364400      -0.33360300
Cu       4.38762000       8.36980000      18.24400000       0.00000000       0.00000000       0.00000000       0.51346700       0.41624800      -0.25121600
Cu       6.99249000       8.37055000      18.27310000       0.00000000       0.00000000       0.00000000      -0.25560500       0.18878800      -0.04644310
Cu       5.67877000       0.36366500      20.33780000       0.00000000       0.00000000       0.00000000       0.09222600       0.01739240      -0.24603200
Cu       8.32036000       0.43197500      20.29660000       0.00000000       0.00000000       0.00000000      -0.79201000      -0.00712621      -0.16537800
Cu       0.59012200       0.41300100      20.34400000       0.00000000       0.00000000       0.00000000       0.12383200       0.32973300      -0.37974100
Cu       3.08059000       0.43019200      20.17990000       0.00000000       0.00000000       0.00000000       0.41562300       0.22571600       0.63522000
Cu       6.88987000       2.58976000      20.14220000       0.00000000       0.00000000       0.00000000       0.12121200      -0.03925980       0.40500300
Cu       9.42178000       2.61348000      20.31210000       0.00000000       0.00000000       0.00000000       0.24810000       0.00833980      -0.23729700
Cu       1.75543000       2.78941000      20.39480000       0.00000000       0.00000000       0.00000000       0.43689400      -0.67659000      -0.52461700
Cu       4.34814000       2.67543000      20.29620000       0.00000000       0.00000000       0.00000000      -0.00942477      -0.32654300      -0.19458500
Cu       8.22084000       4.70024000      20.28580000       0.00000000       0.00000000       0.00000000      -0.01197820       0.27230500      -0.27284600
Cu       0.60661200       4.86332000      20.06180000       0.00000000       0.00000000       0.00000000      -0.40681000       0.29162400       0.27230800
Cu       3.18863000       4.86728000      20.22450000       0.00000000       0.00000000       0.00000000      -0.21809500      -0.10640700      -0.19000300
Cu       5.69333000       4.80729000      20.19830000       0.00000000       0.00000000       0.00000000      -0.21772700      -0.23371600      -0.09640740
Cu       9.38363000       7.04182000      20.09680000       0.00000000       0.00000000       0.00000000       0.52690400      -0.43153400       0.27379000
Cu       1.82103000       7.08356000      20.18500000       0.00000000       0.00000000       0.00000000      -0.24596800      -0.21262600       0.35733200
Cu       4.43405000       6.99023000      20.32710000       0.00000000       0.00000000       0.00000000       0.02383820       0.00082857      -0.32953500
Cu       7.01137000       6.82762000      20.33690000       0.00000000       0.00000000       0.00000000      -0.50393100       0.69497800      -0.62934900
O        9.39312000       1.58620000       4.47795000       0.00000000       0.00000000       0.00000000       0.07200930       1.08196000       0.10587300
H        9.10745000       2.54910000       4.45719000       0.00000000       0.00000000       0.00000000       0.08585410      -1.25153000      -0.17113500
H        9.10998000       1.19046000       3.64800000       0.00000000       0.00000000       0.00000000      -0.28497600      -0.11476200      -0.04316650
O        8.85245000       6.64282000       0.29279400       0.00000000       0.00000000       0.00000000      -0.63936200      -1.24179000       1.70021000
H        8.63363000       5.68316000       0.56601900       0.00000000       0.00000000       0.00000000       0.84643900       1.56559000      -0.72589700
H        9.06612000       6.66223000      29.46980000       0.00000000       0.00000000       0.00000000      -0.24802700      -0.30943000      -0.42573000
O        0.18715200       2.76764000      26.81720000       0.00000000       0.00000000       0.00000000      -0.13091100      -1.40552000      -1.20219000
H        8.22822000       3.82397000      29.93880000       0.00000000       0.00000000       0.00000000       0.82955500       0.12963600       0.12767100
H        0.91079000       2.85970000      26.17920000       0.00000000       0.00000000       0.00000000      -0.21157900       0.05931360      -0.51319800
O        3.13978000       6.71798000      23.48930000       0.00000000       0.00000000       0.00000000       0.07421820       0.01326990       0.36622400
H        2.49215000       6.18212000      23.01990000       0.00000000       0.00000000       0.00000000      -0.37294600      -0.08049260      -0.17375400
H        3.41837000       7.43357000      22.89080000       0.00000000       0.00000000       0.00000000       0.04058790      -0.34144700      -0.19522600
O        2.03186000       1.92484000       4.07738000       0.00000000       0.00000000       0.00000000      -0.34326500      -0.95298300       0.45824100
H        1.14356000       1.56139000       4.33952000       0.00000000       0.00000000       0.00000000       0.73750200       0.56107300      -0.21722900
H        2.64632000       1.63680000       4.79532000       0.00000000       0.00000000       0.00000000      -0.58003900       0.11207400      -0.25686800
O        7.07696000       6.16891000       3.46979000       0.00000000       0.00000000       0.00000000      -1.42521000       0.14514500       0.13963300
H        0.36703300       5.22241000      22.17170000       0.00000000       0.00000000       0.00000000      -0.04829650       0.01534470      -0.24370000
H        6.26758000       5.91332000       4.01001000       0.00000000       0.00000000       0.00000000       1.77293000       0.25143600       0.14454300
O        1.26194000       8.28441000       0.16665100       0.00000000       0.00000000       0.00000000       0.51666900       0.77995200       0.01228830
H        9.98884000       5.80222000      27.76000000       0.00000000       0.00000000       0.00000000      -0.27558700       0.79567900       0.20065500
H        1.03543000       8.55641000      29.36190000       0.00000000       0.00000000       0.00000000      -0.19706600      -0.05955750      -0.01021270
O        0.72975400       4.92067000      23.02130000       0.00000000       0.00000000       0.00000000       0.17878900       0.10056500       0.30073500
H        3.86748000       8.63078000      28.26890000       0.00000000       0.00000000       0.00000000      -0.38480000      -0.07559230       1.12891000
H       10.20720000       5.18111000      23.67570000       0.00000000       0.00000000       0.00000000      -0.05016010      -0.13004800       0.40320500
O        1.88377000       2.83027000      24.34450000       0.00000000       0.00000000       0.00000000       0.71745600       0.51583300       1.09660000
H        2.66553000       3.33014000      24.67060000       0.00000000       0.00000000       0.00000000      -0.40425700      -0.26827900      -0.34573500
H        5.63346000       4.27797000       5.95336000       0.00000000       0.00000000       0.00000000       1.11840000      -1.38822000       1.69954000
O        5.43107000       4.97718000       5.37359000       0.00000000       0.00000000       0.00000000      -1.19610000       0.93844200      -1.50605000
H        4.65539000       4.58146000       4.89878000       0.00000000       0.00000000       0.00000000      -0.14001600       0.56858400      -0.26580400
H        4.57665000       4.08634000      22.38550000       0.00000000       0.00000000       0.00000000      -0.04760150      -0.01195700      -0.57637700
O        4.34009000       8.58179000      27.44110000       0.00000000       0.00000000       0.00000000      -0.41598800       0.47092400      -2.73789000
H        3.67486000       8.83369000      26.73320000       0.00000000       0.00000000       0.00000000       0.71022700      -0.51951900       0.84086800
H        2.61816000       3.88359000       4.43852000       0.00000000       0.00000000       0.00000000      -1.46998000      -0.77033800       0.93806000
O       10.28100000       6.30666000       3.57562000       0.00000000       0.00000000       0.00000000       0.33938000      -1.71526000      -1.97190000
H        0.31938100       5.91666000       2.65107000       0.00000000       0.00000000       0.00000000      -0.19769100       0.94683700       2.12054000
H       10.09230000       7.22031000       3.39317000       0.00000000       0.00000000       0.00000000      -0.23210500       0.65229100      -0.18861700
O        9.39043000       6.59173000      27.87020000       0.00000000       0.00000000       0.00000000       0.18535900      -0.55872900      -1.16969000
H        7.81644000       5.64784000       3.82996000       0.00000000       0.00000000       0.00000000      -0.44596500      -0.35990600       0.37993300
H        8.73892000       6.45126000      27.14660000       0.00000000       0.00000000       0.00000000       0.37152900       0.00825785       0.51714500
O        3.47320000       7.71739000       2.64933000       0.00000000       0.00000000       0.00000000       0.10473700       0.16017100       0.12201600
H        3.93095000       8.54340000       2.88635000       0.00000000       0.00000000       0.00000000       0.05208690      -0.29353600       0.10998900
H        3.71694000       7.06945000       3.32097000       0.00000000       0.00000000       0.00000000      -0.07208660       0.16458700       0.00008022
O        8.83869000       3.81585000       0.59621600       0.00000000       0.00000000       0.00000000      -0.59048900       0.04000020      -0.69107000
H        0.56430800       7.72590000       0.50357500       0.00000000       0.00000000       0.00000000      -0.65373900      -0.51366900       0.02777200
H        8.38401000       3.13841000       1.14977000       0.00000000       0.00000000       0.00000000       0.10115400       0.07702550       0.03982990
O        0.53171800       6.15174000       6.93301000       0.00000000       0.00000000       0.00000000      -1.58416000      -0.51218000      -0.62573200
H        1.35543000       5.89350000       6.53708000       0.00000000       0.00000000       0.00000000       0.89790700      -0.03749040      -0.23442000
O        2.44881000       1.55015000       1.35228000       0.00000000       0.00000000       0.00000000      -0.34742400      -1.23163000      -1.40653000
H        2.49754000       1.75557000       2.28058000       0.00000000       0.00000000       0.00000000      -0.61329200      -0.25358700       1.52440000
H        1.87297000       0.75872600       1.07497000       0.00000000       0.00000000       0.00000000       0.48550300       0.40394300       0.69469800
O        3.35766000       0.80219000       6.48206000       0.00000000       0.00000000       0.00000000       0.18355300      -0.98252400      -0.40404700
H        3.36703000       8.59064000       6.46890000       0.00000000       0.00000000       0.00000000       0.06067520       0.59075000      -0.19224400
H        3.15306000       0.99651700       7.40244000       0.00000000       0.00000000       0.00000000      -0.16587200       0.38303300       0.36545000
O        9.95103000       2.97443000       6.90521000       0.00000000       0.00000000       0.00000000      -0.25732600      -2.37375000      -2.24926000
H       -0.60625600       2.09804000       6.56709000       0.00000000       0.00000000       0.00000000       1.06132000       2.12212000       1.05878000
H        9.52555000       3.18861000       7.72179000       0.00000000       0.00000000       0.00000000      -0.73758100       0.20154400       1.17523000
H        0.69069300       6.81449000       7.58838000       0.00000000       0.00000000       0.00000000       0.54033600       0.67432600       0.76779000
O        4.58328000       3.91386000      23.33850000       0.00000000       0.00000000       0.00000000       0.00060162      -0.66369000       0.01020770
H        4.39374000       4.76365000      23.71530000       0.00000000       0.00000000       0.00000000      -0.21571500       0.99864100       0.50238900
H        5.20002000       7.34758000      29.70090000       0.00000000       0.00000000       0.00000000       1.65541000      -0.77539200       0.24287700
O        5.93858000       6.64940000      29.61170000       0.00000000       0.00000000       0.00000000      -1.52716000       0.12896300       0.09125640
H        6.79931000       6.99537000      29.87610000       0.00000000       0.00000000       0.00000000      -0.05591230       0.64218900      -0.01088850
H        1.57893000       3.35684000      23.60200000       0.00000000       0.00000000       0.00000000      -0.49075700       0.44068300      -0.55304800
O        2.48662000       5.19960000       1.55557000       0.00000000       0.00000000       0.00000000       0.50415100      -0.33668900      -1.50796000
H        2.31036000       4.52820000       0.83140100       0.00000000       0.00000000       0.00000000      -0.39676100       0.47022000       0.84164500
H        3.20828000       5.72356000       1.14805000       0.00000000       0.00000000       0.00000000      -0.46519000      -0.12934700       0.76342500
O        3.32179000       4.25444000       3.95170000       0.00000000       0.00000000       0.00000000       1.80527000       0.83492800      -1.75734000
H        3.04491000       4.40307000       3.00933000       0.00000000       0.00000000       0.00000000       0.12592100       0.20655700       0.71132100
O        8.80533000       5.23514000      25.19920000       0.00000000       0.00000000       0.00000000      -1.60662000      -0.23423900      -1.90305000
H        8.43389000       4.34691000      25.45880000       0.00000000       0.00000000       0.00000000       0.43422800       1.32048000      -0.48854100
H        8.45143000       1.98387000      26.38140000       0.00000000       0.00000000       0.00000000       0.09824260      -0.02050970      -0.31966400
O        7.49976000       2.13533000      26.38610000       0.00000000       0.00000000       0.00000000      -0.44291500      -0.16110400      -0.73625900
H        4.53932000       6.26832000       6.17270000       0.00000000       0.00000000       0.00000000       0.03061970      -0.20994500      -0.22784700
H        7.12545000       1.96341000      25.47220000       0.00000000       0.00000000       0.00000000       0.63036400       0.28111700       0.88435400
O        3.82479000       6.82343000       6.54720000       0.00000000       0.00000000       0.00000000      -0.00299543       0.19378900       0.22386600
H        8.22520000       5.58404000      24.40380000       0.00000000       0.00000000       0.00000000       1.02017000      -0.81785000       2.28564000
H        4.05330000       6.83752000       7.49357000       0.00000000       0.00000000       0.00000000      -0.10571100       0.00362522       0.22790400
O        3.61016000       4.50159000      26.08460000       0.00000000       0.00000000       0.00000000      -0.17201000       0.67454600      -0.08094920
H        4.19960000       5.27152000      26.20920000       0.00000000       0.00000000       0.00000000      -0.07330040      -0.47416300      -0.04920590
H        4.03911000       3.77873000      26.56610000       0.00000000       0.00000000       0.00000000       0.51867800      -0.41401800       0.42140200
O        9.40049000       8.71002000      24.69540000       0.00000000       0.00000000       0.00000000      -0.02764510      -1.08853000       0.74228600
H        8.78912000       8.28191000      24.08590000       0.00000000       0.00000000       0.00000000      -0.12285300       0.10212000      -0.19933400
H        3.93225000       0.59220200       0.17125000       0.00000000       0.00000000       0.00000000       0.51408100      -0.52992400       0.04147600
O        3.86003000       8.46757000      29.96100000       0.00000000       0.00000000       0.00000000      -0.53390100       0.29554100       0.10295300
H        2.92186000       4.49168000       7.13465000       0.00000000       0.00000000       0.00000000      -0.31902000      -0.49222300      -0.41863200
O        2.41807000       3.89433000       6.54015000       0.00000000       0.00000000       0.00000000       1.61283000       0.88574100      -0.08941160
H        9.55698000       0.80726300      24.39820000       0.00000000       0.00000000       0.00000000       0.07621440       0.90001500      -0.62922300
H        1.60929000       3.74084000       7.00008000       0.00000000       0.00000000       0.00000000      -1.30322000      -0.51020000       0.53761500
O        4.53460000       2.54056000       0.16719600       0.00000000       0.00000000       0.00000000       0.53175500      -0.30924600      -0.82968800