246
Lattice="10.140377178 0.0 0.0 0.0 8.78182424 0.0 0.0 0.0 30.131127158" Properties=species:S:1:pos:R:3:initial_charges:R:1:forces:R:3 NELECT0=1456.0 NELECT=1457.3541831377163 U_vs_SHE=-1.0441093114308533 stress="0.008084445766991934 0.0015679232660040074 -0.0004121705381459527 0.0015679232660040074 0.0073116720390980754 0.002330704337787326 -0.0004121705381459527 0.002330704337787326 0.006198498886496796" free_energy=-1807.28935322 energy=-1810.1505147267646 pbc="T T T"
Cu       7.10376000       1.18262000       9.92275000      -0.07874900      -0.24304100      -0.21932500       0.30445000
Cu       9.51884000       1.14612000       9.88344000       0.00524100       0.27550700      -0.18264300       0.42435800
Cu       1.87674000       1.04836000       9.97680000      -0.04489900       0.27863700       0.20708700      -0.11601000
Cu       4.53134000       1.05738000       9.88060000      -0.03892100      -0.13008400       0.11730800       0.30569200
Cu       8.42079000       3.41315000       9.82774000      -0.00722300      -0.30183800      -0.65381100       0.39995100
Cu       0.65852000       3.29721000       9.98641000      -0.04395100       0.37021300      -0.03122600      -0.09051400
Cu       3.16189000       3.20836000       9.95384000       0.01650400       0.19924700       0.11727900       0.09318800
Cu       5.88074000       3.33515000       9.81086000       0.09526800      -0.70350000      -0.23869100      -0.26801600
Cu       9.65264000       5.54678000       9.99729000       0.01542000      -0.14464600      -0.34176800      -0.46161100
Cu       1.93920000       5.46563000       9.93820000       0.01355500       0.27896600       0.02151000      -0.13853900
Cu       4.41326000       5.47651000       9.96725000       0.00561400       0.52584500       0.10049200       0.11545300
Cu       7.14039000       5.41905000       9.90823000      -0.01539900      -0.35869700       1.09705200      -0.16812100
Cu       0.73876000       7.68163000       9.91025000      -0.05925300      -0.02027300       0.12432700       0.25980400
Cu       3.19653000       7.64695000       9.94102000      -0.08534600       0.09063800       0.43283300      -0.21611900
Cu       5.79353000       7.60993000       9.93901000      -0.04899100       0.02339000       0.16630000       0.28046600
Cu       8.43795000       7.64439000       9.94693000      -0.04377900      -0.89329200       0.30340800      -0.18657400
Cu       5.66589000       1.90988000      12.00090000       0.00759500      -0.08535500      -0.02679800      -0.52176500
Cu       8.19558000       1.91349000      12.02740000       0.02671100       0.44361500      -0.07366700      -0.48864600
Cu       0.63149000       1.94193000      12.04080000       0.02046200      -0.37096200      -0.67046500      -0.45256900
Cu       3.05933000       1.79070000      12.00610000       0.01797100       0.84705900       0.72231400      -0.33396700
Cu       6.95784000       4.08682000      11.82860000       0.02518200       0.21072300      -0.58080100       0.83650000
Cu       9.58238000       4.03805000      12.03830000       0.01567800      -0.63599900       0.20528500      -0.38521600
Cu       1.87626000       4.12602000      12.01370000       0.02182500       0.58042700      -0.45989700      -0.28488600
Cu       4.34878000       4.06188000      11.94080000       0.01321400       0.43052300      -0.07642900       0.03736100
Cu       8.36683000       6.19662000      11.98590000       0.01639100      -0.56937700       0.04722800      -0.03222200
Cu       0.74654000       6.23657000      11.98180000       0.02804800      -0.47276200       0.34572400       0.08136600
Cu       3.16365000       6.38128000      11.96340000       0.02078200       0.36109000      -0.77458400       0.22093000
Cu       5.85348000       6.19986000      12.07430000       0.01372800      -0.70514500       0.44947500      -0.89818000
Cu       9.48996000       8.33533000      11.96770000       0.02016500       0.29435500       0.92670200       0.04490600
Cu       1.83654000       8.54118000      12.09290000       0.01006200       0.01673600      -0.75398500      -0.81125800
Cu       4.36538000       8.47008000      11.94680000       0.01326300       0.71452500      -0.00990500       0.08620300
Cu       6.97660000       8.54937000      11.93040000       0.01985300      -0.07513700      -0.59937600       0.04959800
Cu       5.70396000       0.36591000      14.03060000       0.02945400      -0.01496500      -0.00967400      -0.07031000
Cu       8.23906000       0.36591000      14.03060000       0.00324500       0.02287200      -0.02933600       0.02150200
Cu       0.63377000       0.36591000      14.03060000      -0.02310900      -0.30238200       0.09474700       0.40831300
Cu       3.16887000       0.36591000      14.03060000       0.00155700       0.13866200       0.00072400       0.38070800
Cu       6.97151000       2.56137000      14.03060000       0.02416600      -0.07594100       0.15102600       0.11517000
Cu       9.50660000       2.56137000      14.03060000      -0.03203900      -0.11162200       0.00056000       0.38899000
Cu       1.90132000       2.56137000      14.03060000       0.00875300       0.06190100       0.10643900       0.30624800
Cu       4.43642000       2.56137000      14.03060000      -0.00800400      -0.10553900       0.07274100       0.05378900
Cu       8.23906000       4.75682000      14.03060000       0.03002300      -0.15002900      -0.08972000      -0.02891600
Cu       0.63377000       4.75682000      14.03060000      -0.02304700       0.02947700       0.09680600       0.41692500
Cu       3.16887000       4.75682000      14.03060000       0.02087300       0.04141900       0.09732200       0.07085400
Cu       5.70396000       4.75682000      14.03060000      -0.02137000      -0.02101900      -0.24776300       0.01404700
Cu       9.50660000       6.95228000      14.03060000       0.00111900       0.10465200      -0.04623400       0.17763600
Cu       1.90132000       6.95228000      14.03060000       0.00137300       0.03853400      -0.01952500       0.27151200
Cu       4.43642000       6.95228000      14.03060000      -0.00186200       0.07484700       0.01921900       0.00895000
Cu       6.97151000       6.95228000      14.03060000      -0.00446000       0.26684600       0.16966300       0.18295400
Cu       6.97151000       1.09773000      16.10050000       0.02930300       0.03354600      -0.01423600       0.49989900
Cu       9.50660000       1.09773000      16.10050000      -0.00761600      -0.13557600       0.12430600       0.18509900
Cu       1.90132000       1.09773000      16.10050000       0.00093400       0.03011300       0.11404300       0.02151800
Cu       4.43642000       1.09773000      16.10050000      -0.02847600      -0.12965300       0.19382100      -0.14077700
Cu       8.23906000       3.29318000      16.10050000      -0.00871600      -0.13935800      -0.21351000       0.05419300
Cu       0.63377000       3.29318000      16.10050000      -0.01271500      -0.31769800      -0.04615100      -0.31157200
Cu       3.16887000       3.29318000      16.10050000      -0.00753900      -0.14231500      -0.11165400       0.01307300
Cu       5.70396000       3.29318000      16.10050000      -0.01451300      -0.20751800      -0.10437900      -0.07124600
Cu       9.50660000       5.48864000      16.10050000      -0.00090700      -0.12533000       0.02771300      -0.00557700
Cu       1.90132000       5.48864000      16.10050000      -0.00534900      -0.13658700       0.07692000      -0.16198500
Cu       4.43642000       5.48864000      16.10050000      -0.00070000      -0.12732800      -0.04578200       0.10821700
Cu       6.97151000       5.48864000      16.10050000       0.00295800      -0.12957700       0.01014400       0.10262000
Cu       0.63377000       7.68410000      16.10050000      -0.02552900      -0.10018300       0.02697400      -0.10705400
Cu       3.16887000       7.68410000      16.10050000      -0.00503200      -0.07252500       0.03067100      -0.15825500
Cu       5.70396000       7.68410000      16.10050000       0.03063700       0.16021600       0.00508500       0.17956100
Cu       8.23906000       7.68410000      16.10050000      -0.00345100      -0.12664600       0.04020200       0.20831200
Cu       5.56360000       1.76308000      18.20720000       0.00199300       0.51073000       0.46613600       0.06423100
Cu       8.09820000       1.79035000      18.45350000       0.00955500      -0.16467700       0.04219000      -1.21451100
Cu       0.62539000       1.87289000      18.16070000       0.02241700      -0.66968800      -0.13584400       0.25222300
Cu       3.06128000       1.75258000      18.30790000       0.02077000       0.17150900       0.81728800      -0.86884600
Cu       6.82957000       3.95045000      18.12830000       0.01114100      -0.10898600       0.27785800       0.67510700
Cu       9.27721000       4.06633000      18.16270000       0.00525200       0.44330400      -0.17544700       0.37127800
Cu       1.70367000       4.02436000      18.07980000       0.00713000       0.35718400       0.31180500       0.78823500
Cu       4.26068000       3.93697000      18.17710000       0.00101500       0.35928700       0.49589200      -0.14663300
Cu       8.05595000       6.22267000      18.19710000       0.01527600       0.07869800       0.00753300       0.13595100
Cu       0.46148000       6.29843000      18.16620000       0.01021300      -0.05060200      -0.45200000       0.03623900
Cu       2.97440000       6.28530000      18.15010000       0.00735300       0.39779200      -0.30492300       0.17760700
Cu       5.52010000       6.22171000      18.19920000       0.02015000       0.24262300       0.24108200      -0.37181400
Cu       9.41765000       8.45664000      18.16270000       0.00148100      -0.23578300      -0.03796800       0.11527400
Cu       1.79272000       8.44456000      18.13940000       0.02324400      -0.07577200      -0.14211500      -0.07024100
Cu       4.40108000       8.46607000      18.08730000       0.00254200      -0.43497800      -0.68822000       0.42719500
Cu       6.90705000       8.36797000      18.41890000       0.02384300      -0.07044000       0.19389100      -0.49045700
Cu       5.35930000       0.34126000      20.24960000      -0.07152200       0.29806700       0.59008100       0.18386200
Cu       8.21878000       0.39728000      20.44450000      -0.00229000      -1.14026600      -0.05888400      -0.08211700
Cu       0.39809000       0.38771000      20.22950000      -0.03758800       0.64248100       0.07184600      -0.03679300
Cu       2.83069000       0.41615000      20.17920000      -0.07734000       0.71503600      -0.53132100       0.72190800
Cu       6.74421000       2.58863000      20.42020000      -0.05180600       0.28225000       0.10209300      -0.62166000
Cu       9.37548000       2.54822000      20.22340000      -0.07559100       0.31911500       0.79376800       0.33021400
Cu       1.80797000       2.59349000      20.36930000      -0.05966300      -0.44352400       0.25536000      -0.52370400
Cu       4.34000000       2.65816000      20.26060000      -0.05732700      -0.21397300      -0.19447800       0.08509100
Cu       7.96703000       4.92370000      20.36860000      -0.04966200       0.09703000      -0.58168900      -0.49252400
Cu       0.42294000       4.82836000      20.22180000      -0.06198100       0.06476200      -0.32922000      -0.22006000
Cu       3.01319000       4.73373000      20.12410000      -0.09476500      -0.34575300       0.36788200      -0.07358500
Cu       5.49569000       5.03006000      20.18910000      -0.06137500       0.20721300      -1.38259000       0.39889000
Cu       9.25197000       6.97887000      20.28560000      -0.02409300       0.14570300       0.03541400      -0.36121300
Cu       1.63626000       7.00773000      20.17780000      -0.06208600       0.25558400      -0.16391800       0.14679000
Cu       4.19647000       6.99697000      20.26430000      -0.03241100      -0.47744800       0.28714900      -0.26118600
Cu       6.67772000       7.12322000      20.56960000      -0.04575600       0.39651500      -0.26768000      -0.59187700
O        8.29764000       3.19985000      23.27860000      -1.34897700      -3.79498800       0.34548400      -0.85711600
O        8.70647000       7.26146000       1.47937000      -1.29758400       0.05127300       1.81898100       0.67112100
O        1.45822000       8.47623000      23.81550000      -1.30998700      -0.57022500      -0.11949000       0.46544600
O        4.98228000       2.65154000      23.64900000      -1.29740200       0.72414300       1.07403600      -0.31338200
O        7.34168000       2.71351000      27.46810000      -1.32376900      -1.69148400      -0.82204100      -0.30475300
O        3.06843000       3.03541000      25.43320000      -1.35009400      -0.34005900      -0.52121300       0.78528000
O        0.18231000       5.12790000       1.80966000      -1.35051600       0.43139500       0.00337000      -0.43167000
O        5.85721000       6.13093000      29.67670000      -1.26230000       1.66201700      -0.25956000       0.11741700
O        6.44401000       5.08468000      24.09630000      -1.34298000      -1.93085500       0.60177100       0.78657900
O        4.54347000       7.48466000      23.73840000      -1.29630500      -0.18568600      -2.13437700      -0.50861200
O        8.27127000       7.00623000      28.37990000      -1.30779100       0.00317500      -1.26987700      -0.51104600
O        9.16378000       8.66564000      26.10230000      -1.31201000       0.96383800      -1.12681300       0.63227300
O        8.00307000       0.44708000       5.05602000      -1.34993800      -0.10566600      -0.13460000      -0.68444000
O        3.65285000       8.43632000      26.00910000      -1.34943500      -0.71755500      -0.19641700      -0.57037300
O        8.94592000       2.59695000      29.71660000      -1.31618800       0.11297900       0.73452700      -0.70756500
O        6.11708000       8.69121000      27.25060000      -1.32873700       0.52537900       0.20447100       0.41545700
O        3.09660000       8.58615000       1.09840000      -1.24924000      -1.56003500      -1.04643800       1.62968400
O       10.03210000       0.75800000       1.28598000      -1.37114100       0.69015900      -0.52246200       0.61655300
O        0.80167000       3.12035000      23.41720000      -1.25573900       0.04737300      -0.47537300      -2.07235700
O        2.77437000       1.32205000       5.58770000      -1.39021300      -1.65109700      -0.73259600       1.09926300
O        1.33277000       4.28798000      28.95100000      -1.38391100      -0.21874300       0.70514100       2.88088900
O        5.85083000       6.98214000       2.17536000      -1.33208900       0.58190400      -2.54115900      -0.14038300
O       10.06412000       5.60937000      24.70460000      -1.34286600       0.36785100       0.71482100       2.36043900
O        8.66683000       7.24488000      23.24140000      -1.29033100      -1.26323400       0.77466500      -0.30232900
O        6.40947000       3.60417000       0.49888000      -1.32662100      -1.62881000      -0.34686100      -0.03298000
O        7.15800000       6.00763000       6.15172000      -1.28428900      -1.53199000       1.52013100       0.08927100
O        9.83749000       7.56065000       6.31590000      -1.33335100       0.89355800      -1.02349600       0.47878600
O        1.99391000       7.67041000       5.27958000      -1.36494000       1.02951500      -0.10668700      -0.35072800
O        2.46518000       6.32527000       2.68776000      -1.34721000      -0.99658700       1.81418500      -0.18125700
O        2.69981000       2.27491000      28.04900000      -1.35287900      -0.44647300      -0.99101400      -1.71460900
O        4.55477000       1.76307000      30.00285000      -1.34206800      -0.89748900      -0.48235400      -0.16037500
O        5.76361000       3.67986000       7.28000000      -1.30743300       0.76714600       0.35251000       0.29457200
O        7.21449000       0.93030000      24.60590000      -1.32329100       1.90441200       2.03206700      -1.35233600
O        4.51346000       7.24577000       6.76073000      -1.26909300      -1.25672600       0.43960200       0.26885800
O        9.19730000       4.74328000      27.01500000      -1.32874500       0.10354200      -1.06091100      -1.24713700
O        9.73194000       5.00785000       6.98387000      -1.31306800       0.06325400      -0.66350600       0.34412400
O        0.31446000       1.28428000       7.10667000      -1.26225900      -0.06100800       1.24991800       0.75806300
O        2.94995000       4.14098000       7.36448000      -1.28796300       0.07873000      -0.19348700      -0.44452800
O        2.76837000       5.45340000      23.23100000      -1.28924900       0.60973200       0.31754200       1.27088800
O       10.08006000       2.01503000       3.99784000      -1.29085000       1.68645700       0.17059000      -0.49435700
O        4.22948000       3.82795000       4.30810000      -1.32344700      -0.64173200      -0.79636500      -1.67027700
O        5.49502000       0.50219000       3.60927000      -1.30759500       0.63565100      -1.40749200       0.38415500
O        3.77880000       6.40159000      27.72560000      -1.41032900      -0.93909100      -2.36594200       1.42141200
O        5.73359000       4.65153000      26.80540000      -1.32232300       0.07527300      -0.17876300       0.07816800
O        2.32347000       3.32803000       1.77110000      -1.30889300      -1.50884700       1.79221800       1.71845700
O        0.86672000       7.25216000      29.33590000      -1.35736100      -1.31750900       1.64361400      -0.82476100
O        1.33729000       0.22306000      27.36470000      -1.35450000       0.01744700      -0.38407000      -0.44621900
O        6.53534000       4.43811000       3.21005000      -1.32709900       0.61215900      -0.99383500      -0.50050600
O        8.94704000       4.22366000       4.15217000      -1.30078000      -0.09264600       0.27708200       1.62556700
O        6.17383000       0.85927000       7.01544000      -1.31020200       0.24099700       0.32534300       0.29911700
H        8.13737000       3.19418000      22.30620000       0.58787800       0.04705000      -0.13023600       0.46932400
H        9.21347000       3.17162000      23.35580000       0.68796000       3.34178500      -0.20128100       0.59091500
H        7.75725000       7.36974000       1.69336000       0.63181700       0.18927600      -0.41980000      -0.06526800
H        9.09166000       8.18199000       1.71010000       0.64105200      -0.41444600      -1.46429000      -0.81503800
H        9.59227000       3.34356000      29.66960000       0.63964400      -0.31473800      -0.61582700      -0.20990600
H        1.58175000       8.43088000      22.84840000       0.62616000      -0.79667500      -0.11377500       0.50833900
H        5.04894000       2.19192000      22.81500000       0.61021500      -0.10611200      -0.55025300      -0.55980900
H        5.42880000       3.51442000      23.43980000       0.65388000      -0.51732600      -0.51861100       0.69414300
H        6.56421000       3.34476000      27.45790000       0.65717200       0.83420400       0.34712900      -0.06352000
H        6.81319000       1.90537000      27.22480000       0.66072200       1.11657000       0.09040900       0.39577400
H        6.82955000       6.34489000      29.54100000       0.62451400      -1.11293600       0.51943700      -0.36398800
H        2.63868000       3.73614000      24.97740000       0.65921900      -0.81748000       1.22426700      -0.36596100
H        7.62457000       0.73078000       5.90724000       0.67880800      -0.39818100      -0.01826600      -0.25712700
H        9.76882000       5.89592000       1.57830000       0.69095400      -0.30281100       0.12273900       0.03028400
H        9.02169000       7.08425000      28.98650000       0.64938700       0.17241800      -0.00228700      -0.05559600
H        5.99323000       5.16187000      29.76780000       0.63774500      -0.57460800      -0.15547700       0.30472200
H        6.26281000       5.96521000      23.75430000       0.66075500      -0.13378700       0.24306600       0.08926400
H        4.11034000       6.60148000      23.44610000       0.65087600       0.33465900       1.39853500       0.65904300
H        4.37907000       8.03537000      22.97800000       0.61606000      -0.03072500       0.51360600      -0.53333200
H        2.57686000       0.37913000       5.30389000       0.68443800       0.26185800       0.54029200       0.16796200
H        8.44603000       6.12901000      27.90300000       0.66135200      -0.10541300       1.07866000       0.43018300
H        0.06282000       5.23951000      23.87700000       0.64875200       0.46283000      -1.47925700      -2.28860400
H        8.41700000       0.39730000      25.83900000       0.66631800      -1.08991800       1.12232300      -0.87873800
H        8.75367000       8.10786000      26.78410000       0.64336800       0.11457900      -0.33290900       0.34349900
H        3.66865000       2.73783000      24.75020000       0.69108600       0.82488700      -0.50112400      -0.25449500
H        7.24559000       0.43651000       4.40664000       0.66747500       0.46154100       0.10147800       0.80064500
H        2.70908000       8.59484000      26.19280000       0.66445100       0.02256800       0.44929200       0.56664800
H        3.59246000       8.00806000      25.12980000       0.68145800       0.72611600       0.28012100       0.13308400
H        9.86413000       4.74337000       2.56705000       0.65581500      -0.05157400      -0.11070400       0.41985200
H        8.51112000       2.55583000      28.81560000       0.67596200       0.33634800       0.05343700       0.71525300
H        5.20211000       8.75886000      26.93310000       0.68050800      -0.15251700      -0.35886100       0.34013400
H        3.12289000       7.63479000       1.40191000       0.64689400       0.57289100       0.80599000      -0.46057300
H        2.29628000       0.02110000       1.64825000       0.59424500       0.89273700       0.40792100      -0.97769700
H        0.11237000       1.42968000       1.93938000       0.67410100      -0.08969500       0.14618400       0.31525900
H        9.82945000       1.25870000       0.49124000       0.70200700      -0.52736400       0.48819800      -0.64951600
H        1.15902000       2.32678000      23.84710000       0.65443800       0.03752900      -0.03562000      -0.07195000
H        0.83015000       2.91873000      22.40090000       0.55324000       0.15189800       0.28179900       2.08519600
H        6.15580000       8.21734000      28.10840000       0.64837500      -0.30353200       0.40106300      -0.94692100
H        3.44125000       1.69818000       5.05756000       0.67111000       1.37635400       0.70514300      -1.09757200
H        1.86825000       3.54510000      28.67170000       0.69931900       0.55864500      -0.87410600      -0.85856500
H        0.90019000       4.69418000      28.23470000       0.65969500      -0.82132200       0.35510400      -1.67457300
H        7.16605000       4.74914000      23.61730000       0.67613800       1.99704900      -0.85766100      -0.86773200
H        6.15949000       6.10735000       2.62564000       0.65308200      -0.44925300       1.60914500      -0.18248200
H        5.70085000       6.58248000       1.26261000       0.65869100       0.01908400       0.96539000       0.30578300
H        9.34733000       6.22175000      24.54300000       0.70527000      -0.42588500       0.49465500      -0.11533300
H        8.23156000       7.12439000      22.36350000       0.56867200       0.46475100      -0.23680800       0.22418200
H        5.73012000       2.92978000       0.15778000       0.67452900       0.77111400       0.59686900       0.49200100
H        6.49062000       6.76757000       6.18741000       0.62560900       1.37216800      -1.14752200      -0.10262900
H        7.24630000       3.36753000       0.10320000       0.65226000       0.90325500      -0.51815700      -0.20204200
H        8.04410000       7.89512000      23.63350000       0.65334000       0.48835200       0.10406800       0.26412000
H        6.53499000       5.28874000       6.32175000       0.64610900       0.17315200      -0.51936400       0.11081700
H       10.01240000       8.14142000       7.05620000       0.66331300      -0.19838800       0.76306000       0.27965700
H        9.06062000       7.87080000       5.86742000       0.69836800      -1.12411100       0.67920700      -0.65086300
H        1.06254000       7.64655000       5.58253000       0.68686700      -0.43175800      -0.12819100       0.11039900
H        3.22358000       5.83523000       2.92914000       0.65585500       1.06095100      -1.19079100       0.18104500
H        2.77269000       2.56746000      27.09010000       0.67532100       0.61792400       0.16490600       1.00448600
H        2.01805000       7.27148000       4.39671000       0.67828300       0.09897600      -0.28337600      -0.31482400
H        2.16247000       1.43103000      27.82220000       0.67372900       0.23663800       0.82978200       0.78993300
H        4.14302000       1.09956000       0.45122000       0.66422100       0.46851000      -0.25323200       0.40122800
H        3.93122000       1.64991000      29.24520000       0.67008300       0.54566500       0.92174300      -0.27838000
H        4.91408000       4.00716000       7.01078000       0.65433100      -1.23665000       0.71177700       0.20758800
H        7.26972000       1.89778000      24.26200000       0.64534500      -0.22202700      -2.23568300       0.67624500
H        5.78173000       2.86749000       6.78123000       0.65915200       0.52751000      -1.14859600      -0.09117100
H        6.33688000       0.73606000      24.85460000       0.68409800      -1.66440100      -0.03717400       0.44713300
H        2.77364000       2.78168000       1.19469000       0.63647900       1.73833200      -1.84995800      -2.05577900
H        3.63043000       7.33782000       6.28496000       0.65543400       1.05385600      -0.07794300       0.65836900
H        4.31970000       7.44250000       7.72185000       0.56003000       0.09620700      -0.33293500      -1.09083900
H        8.70004000       3.90110000      26.85220000       0.65371000       0.10467400       0.73852500       0.67197700
H        8.77841000       5.08523000       7.06171000       0.63203200      -0.56456600      -0.15267500       0.09002300
H        1.27615000       1.35236000       6.93475000       0.63533100      -0.36547800       0.15021700      -0.09622400
H        9.92690000       5.94933000       6.88763000       0.66474000       0.30517400       0.39013100      -0.25357900
H        9.62258000       4.86514000      26.11050000       0.66242100      -0.35234900       0.40371500       0.97624900
H        0.06914000       2.12420000       7.59865000       0.59938400       0.46571200      -1.17562700      -0.77197600
H        2.88315000       4.62040000       6.52248000       0.64018100      -0.10410900      -0.02216700       0.13370600
H        2.81263000       3.21482000       7.10483000       0.65261500      -0.03224000       0.14149300      -0.06376800
H        1.78408000       5.79088000       2.23462000       0.69052100      -0.17560200      -0.49523300       0.33776900
H        0.85344000       1.82242000       4.28264000       0.62983000      -0.30927100       0.28852700       0.02055800
H        3.72306000       3.62132000       3.46852000       0.60826300       0.13960700       0.34222400       1.28057300
H        9.54913000       1.38767000       4.46673000       0.68293000      -1.11274100      -1.12165500       0.66744900
H        1.98110000       5.99902000      23.40040000       0.64509900       0.19424000      -0.23670200      -0.49599500
H        5.14239000       3.87796000       3.91148000       0.67586600      -0.00311500       0.48145500       0.50133900
H        5.55817000       8.54371000       2.94925000       0.66430700      -0.17085300       0.23469500       0.42178500
H        5.19471000       1.24949000       3.12791000       0.63916300      -0.32891000       1.03164000      -0.71408900
H        0.53489000       8.23098000      24.10900000       0.65463900       1.24824300       0.29994000      -1.03237500
H        3.79616000       7.09195000      27.08630000       0.69241200       0.86024400       1.34325200      -0.79578000
H        6.00691000       4.69244000      25.88280000       0.65024000       0.21580200       0.08395900      -0.25680100
H        4.57674000       6.21013000      28.24590000       0.68817900       0.01282900       0.96881200      -0.32862600
H        4.83195000       4.99603000      26.80360000       0.66943500      -0.34641700       0.12062500       0.25628300
H        1.78225000       3.88762000       1.18411000       0.66576000      -0.04996000      -0.10514000       0.29964600
H        2.81279000       5.07893000      22.34900000       0.61477400      -0.62817600       0.02251700      -0.42700700
H        0.72389000       7.66043000       0.04952000       0.67063200      -0.05327100       0.62715800       0.64460300
H        1.30169000       6.46075000      29.51500000       0.70871200       1.41174300      -2.53072200       0.27850400
H        0.46276000       0.18987000      26.91840000       0.69291100      -0.09152500       0.22112700      -0.09023300
H        1.35803000       8.23422000      27.95630000       0.67950800      -0.06045100      -0.00729000       0.36273800
H        6.57480000       3.94346000       2.34231000       0.66366500      -0.00473300       0.58447100       0.46045700