 vasp.6.4.3 19Mar24 (build Sep  4 2024 12:23:58) complex                         
 executed on              LinuxNV date 2025.10.06  00:02:28
 running    4 mpi-ranks, with    1 threads/rank, on    1 nodes
 distrk:  each k-point on    2 cores,    2 groups
 distr:  one band on NCORE=   1 cores,    2 groups
 OpenACC runtime initialized ...    4 GPUs detected


--------------------------------------------------------------------------------------------------------


 INCAR:
   ENCUT = 800.000000
   SIGMA = 0.100000
   EDIFF = 1.00e-08
   ALGO = A
   METAGGA = R2SCAN
   PREC = Accurate
   IBRION = -1
   ICHARG = 1
   IDIPOL = 3
   ISMEAR = 0
   ISTART = 1
   KPAR = 2
   NELM = 300
   NPAR = 2
   NCORE = 1
   DIPOL = 0.5 0.5 0.5
   LASPH = .TRUE.
   LDIPOL = .TRUE.
   LVHAR = .TRUE.
   LMIXTAU = .TRUE.
   LVACPOTAV = .TRUE.
   LREAL = Auto

 POTCAR:    PAW_PBE Cu 22Jun2005                  
 POTCAR:    PAW_PBE O_h 06Feb2004                 
 POTCAR:    PAW_PBE H_h 06Feb2004                 
 POTCAR:    PAW_PBE Cu 22Jun2005                  
   VRHFIN =Cu: d10 p1                                                                               
   LEXCH  = PE                                                                                      
   EATOM  =  1390.9808 eV,  102.2342 Ry                                                             
                                                                                                    
   TITEL  = PAW_PBE Cu 22Jun2005                                                                    
   LULTRA =        F    use ultrasoft PP ?                                                          
   IUNSCR =        1    unscreen: 0-lin 1-nonlin 2-no                                               
   RPACOR =    2.000    partial core radius                                                         
   POMASS =   63.546; ZVAL   =   11.000    mass and valenz                                          
   RCORE  =    2.300    outmost cutoff radius                                                       
   RWIGS  =    2.200; RWIGS  =    1.164    wigner-seitz radius (au A)                               
   ENMAX  =  295.446; ENMIN  =  221.585 eV                                                          
   ICORE  =        3    local potential                                                             
   LCOR   =        T    correct aug charges                                                         
   LPAW   =        T    paw PP                                                                      
   EAUG   =  586.980                                                                                
   DEXC   =    0.000                                                                                
   RMAX   =    2.344    core radius for proj-oper                                                   
   RAUG   =    1.300    factor for augmentation sphere                                              
   RDEP   =    2.302    radius for radial grids                                                     
   RDEPT  =    1.771    core radius for aug-charge                                                  
                                                                                                    
   Atomic configuration                                                                             
    9 entries                                                                                       
     n  l   j            E        occ.                                                              
     1  0  0.50     -8850.2468   2.0000                                                             
     2  0  0.50     -1062.3498   2.0000                                                             
     2  1  1.50      -916.8226   6.0000                                                             
     3  0  0.50      -114.6929   2.0000                                                             
     3  1  1.50       -72.1325   6.0000                                                             
     3  2  2.50        -5.0394  10.0000                                                             
     4  0  0.50        -4.6097   1.0000                                                             
     4  1  0.50        -4.0817   0.0000                                                             
     4  3  2.50        -1.3606   0.0000                                                             
   Description                                                                                      
     l       E           TYP  RCUT    TYP  RCUT                                                     
     2     -5.0393973     23  2.200                                                                 
     2     10.8846608     23  2.200                                                                 
     0     -4.6097109     23  2.200                                                                 
     0      8.2520465     23  2.200                                                                 
     1     -2.7211652     23  2.200                                                                 
     1     21.7055443     23  2.200                                                                 
     3      2.7211652     23  2.300                                                                 
  local pseudopotential read in
  partial core-charges read in
  partial kinetic energy density read in
  atomic valenz-charges read in
  non local Contribution for L=            2  read in
    real space projection operators read in
  non local Contribution for L=            2  read in
    real space projection operators read in
  non local Contribution for L=            0  read in
    real space projection operators read in
  non local Contribution for L=            0  read in
    real space projection operators read in
  non local Contribution for L=            1  read in
    real space projection operators read in
  non local Contribution for L=            1  read in
    real space projection operators read in
    PAW grid and wavefunctions read in
 
   number of l-projection  operators is LMAX  =            6
   number of lm-projection operators is LMMAX =           18
 
 POTCAR:    PAW_PBE O_h 06Feb2004                 
   VRHFIN =O: s2p4                                                                                  
   LEXCH  = PE                                                                                      
   EATOM  =   432.3788 eV,   31.7789 Ry                                                             
                                                                                                    
   TITEL  = PAW_PBE O_h 06Feb2004                                                                   
   LULTRA =        F    use ultrasoft PP ?                                                          
   IUNSCR =        1    unscreen: 0-lin 1-nonlin 2-no                                               
   RPACOR =    0.800    partial core radius                                                         
   POMASS =   16.000; ZVAL   =    6.000    mass and valenz                                          
   RCORE  =    1.100    outmost cutoff radius                                                       
   RWIGS  =    1.400; RWIGS  =    0.741    wigner-seitz radius (au A)                               
   ENMAX  =  700.000; ENMIN  =  500.000 eV                                                          
   ICORE  =        2    local potential                                                             
   LCOR   =        T    correct aug charges                                                         
   LPAW   =        T    paw PP                                                                      
   EAUG   =  888.804                                                                                
   DEXC   =    0.000                                                                                
   RMAX   =    1.128    core radius for proj-oper                                                   
   RAUG   =    1.300    factor for augmentation sphere                                              
   RDEP   =    1.125    radius for radial grids                                                     
   RDEPT  =    1.088    core radius for aug-charge                                                  
                                                                                                    
   Atomic configuration                                                                             
    4 entries                                                                                       
     n  l   j            E        occ.                                                              
     1  0  0.50      -514.6923   2.0000                                                             
     2  0  0.50       -23.9615   2.0000                                                             
     2  1  0.50        -9.0305   4.0000                                                             
     3  2  1.50        -9.5241   0.0000                                                             
   Description                                                                                      
     l       E           TYP  RCUT    TYP  RCUT                                                     
     0    -23.9615319     23  1.100                                                                 
     0    -25.3221145     23  1.100                                                                 
     1     -9.0304911     23  1.100                                                                 
     1     -5.4802209     23  1.100                                                                 
     2     -9.5240782      7  1.100                                                                 
  local pseudopotential read in
  partial core-charges read in
  partial kinetic energy density read in
  atomic valenz-charges read in
  non local Contribution for L=            0  read in
    real space projection operators read in
  non local Contribution for L=            0  read in
    real space projection operators read in
  non local Contribution for L=            1  read in
    real space projection operators read in
  non local Contribution for L=            1  read in
    real space projection operators read in
    PAW grid and wavefunctions read in
 
   number of l-projection  operators is LMAX  =            4
   number of lm-projection operators is LMMAX =            8
 
 POTCAR:    PAW_PBE H_h 06Feb2004                 
   VRHFIN =H: ultrasoft test                                                                        
   LEXCH  = PE                                                                                      
   EATOM  =    12.4884 eV,    0.9179 Ry                                                             
                                                                                                    
   TITEL  = PAW_PBE H_h 06Feb2004                                                                   
   LULTRA =        F    use ultrasoft PP ?                                                          
   IUNSCR =        0    unscreen: 0-lin 1-nonlin 2-no                                               
   RPACOR =    0.000    partial core radius                                                         
   POMASS =    1.000; ZVAL   =    1.000    mass and valenz                                          
   RCORE  =    0.800    outmost cutoff radius                                                       
   RWIGS  =    0.700; RWIGS  =    0.370    wigner-seitz radius (au A)                               
   ENMAX  =  700.000; ENMIN  =  350.000 eV                                                          
   RCLOC  =    0.701    cutoff for local pot                                                        
   LCOR   =        T    correct aug charges                                                         
   LPAW   =        T    paw PP                                                                      
   EAUG   = 1000.000                                                                                
   RMAX   =    0.819    core radius for proj-oper                                                   
   RAUG   =    1.000    factor for augmentation sphere                                              
   RDEP   =    0.817    radius for radial grids                                                     
   RDEPT  =    0.817    core radius for aug-charge                                                  
                                                                                                    
   Atomic configuration                                                                             
    2 entries                                                                                       
     n  l   j            E        occ.                                                              
     1  0  0.50        -6.4927   1.0000                                                             
     2  1  0.50        -3.4015   0.0000                                                             
   Description                                                                                      
     l       E           TYP  RCUT    TYP  RCUT                                                     
     0     -6.4927493     23  0.800                                                                 
     0      6.8029130     23  0.800                                                                 
     1     -6.8029130     23  0.800                                                                 
  local pseudopotential read in
  atomic valenz-charges read in
  non local Contribution for L=            0  read in
    real space projection operators read in
  non local Contribution for L=            0  read in
    real space projection operators read in
  non local Contribution for L=            1  read in
    real space projection operators read in
    PAW grid and wavefunctions read in
 
   number of l-projection  operators is LMAX  =            3
   number of lm-projection operators is LMMAX =            5
 
 Optimization of the real space projectors (new method)

 maximal supplied QI-value         = 16.25
 optimisation between [QCUT,QGAM] = [ 14.46, 28.93] = [ 58.58,234.33] Ry 
 Optimized for a Real-space Cutoff    1.35 Angstroem

   l    n(q)    QCUT    max X(q) W(low)/X(q) W(high)/X(q)  e(spline) 
   2     11    14.464     4.610    0.56E-04    0.10E-03    0.52E-06
   2     11    14.464     8.522    0.88E-04    0.16E-03    0.84E-06
   0     12    14.464    51.609    0.44E-04    0.29E-04    0.63E-06
   0     12    14.464    27.747    0.38E-04    0.27E-04    0.60E-06
   1     11    14.464    20.408    0.64E-04    0.66E-04    0.14E-06
   1     11    14.464    13.425    0.56E-04    0.59E-04    0.13E-06
 Optimization of the real space projectors (new method)

 maximal supplied QI-value         = 34.20
 optimisation between [QCUT,QGAM] = [ 14.37, 28.73] = [ 57.79,231.16] Ry 
 Optimized for a Real-space Cutoff    0.98 Angstroem

   l    n(q)    QCUT    max X(q) W(low)/X(q) W(high)/X(q)  e(spline) 
   0      8    14.366   280.207    0.54E-04    0.14E-03    0.22E-06
   0      8    14.366   228.978    0.55E-04    0.14E-03    0.22E-06
   1      8    14.366    86.127    0.24E-03    0.25E-03    0.26E-06
   1      8    14.366    65.368    0.24E-03    0.24E-03    0.26E-06
 Optimization of the real space projectors (new method)

 maximal supplied QI-value         = 47.24
 optimisation between [QCUT,QGAM] = [ 14.17, 28.82] = [ 56.25,232.56] Ry 
 Optimized for a Real-space Cutoff    0.95 Angstroem

   l    n(q)    QCUT    max X(q) W(low)/X(q) W(high)/X(q)  e(spline) 
   0      8    14.173    34.671    0.25E-03    0.45E-03    0.25E-06
   0      8    14.173    17.046    0.24E-03    0.43E-03    0.25E-06
   1      8    14.173     1.978    0.58E-04    0.22E-03    0.31E-06
 -----------------------------------------------------------------------------
|                                                                             |
|               ----> ADVICE to this user running VASP <----                  |
|                                                                             |
|     You enforced a specific xc type in the INCAR file but a different       |
|     type was found in the POTCAR file.                                      |
|     I HOPE YOU KNOW WHAT YOU ARE DOING!                                     |
|                                                                             |
 -----------------------------------------------------------------------------

  PAW_PBE Cu 22Jun2005                  :
 energy of atom  1       EATOM=-1390.9808
 kinetic energy error for atom=    0.0007 (will be added to EATOM!!)
  PAW_PBE O_h 06Feb2004                 :
 energy of atom  2       EATOM= -432.3788
 kinetic energy error for atom=    0.0500 (will be added to EATOM!!)
  PAW_PBE H_h 06Feb2004                 :
 energy of atom  3       EATOM=  -12.4884
 kinetic energy error for atom=    0.0035 (will be added to EATOM!!)
 
 
 POSCAR: Cu O  H
  positions in cartesian coordinates
  No initial velocities read in


 exchange-correlation table for R2SCAN
   RHO(1)=    0.500       N(1)  =     2000
   RHO(2)=  100.500       N(2)  =     4000
 


--------------------------------------------------------------------------------------------------------


 ion  position               nearest neighbor table
   1  0.701  0.135  0.386-   2 2.42  32 2.46   8 2.48  18 2.48   4 2.58   5 2.59  17 2.63  16 2.68
                            15 2.69
   2  0.939  0.131  0.386-   1 2.42   3 2.50   6 2.51   5 2.52  16 2.53  19 2.62  29 2.62  13 2.63
                            18 2.63
   3  0.185  0.119  0.388-  13 2.43  20 2.46  30 2.48   2 2.50   7 2.51  14 2.55   6 2.56  19 2.57
                             4 2.66
   4  0.447  0.120  0.386-  31 2.48   7 2.55  17 2.55  15 2.56  14 2.57   1 2.58   8 2.65   3 2.66
                            20 2.69
   5  0.830  0.389  0.384-  12 2.38   6 2.39   9 2.47   2 2.52   8 2.54  21 2.57  22 2.57   1 2.59
                            18 2.67
   6  0.065  0.375  0.388-   5 2.39  19 2.46  22 2.50   7 2.51   2 2.51  23 2.51  10 2.52   9 2.52
                             3 2.56
   7  0.312  0.365  0.387-  24 2.47  20 2.50   6 2.51   3 2.51   4 2.55  10 2.57  11 2.59  23 2.60
                             8 2.73
   8  0.580  0.380  0.384-  21 2.41  12 2.44   1 2.48   5 2.54  11 2.60  17 2.62   4 2.65  24 2.72
                             7 2.73
   9  0.952  0.632  0.388-  16 2.42  10 2.43  26 2.44  25 2.46  13 2.46   5 2.47  12 2.52   6 2.52
                            22 2.54
  10  0.191  0.622  0.387-   9 2.43  23 2.47  11 2.47  26 2.49  14 2.52   6 2.52  13 2.52  27 2.54
                             7 2.57
  11  0.435  0.624  0.387-  24 2.43  10 2.47  14 2.49  27 2.52  15 2.54   7 2.59   8 2.60  28 2.65
                            12 2.73
  12  0.704  0.617  0.386-  21 2.34   5 2.38   8 2.44   9 2.52  25 2.53  15 2.57  16 2.58  28 2.64
                            11 2.73
  13  0.073  0.875  0.386-   3 2.43  16 2.44  14 2.46   9 2.46  10 2.52  26 2.53  29 2.57  30 2.59
                             2 2.63
  14  0.315  0.871  0.387-  27 2.39  13 2.46  31 2.46  11 2.49  10 2.52   3 2.55   4 2.57  15 2.60
                            30 2.70
  15  0.571  0.867  0.387-  32 2.50  11 2.54  28 2.56   4 2.56  12 2.57  14 2.60  31 2.61  16 2.64
                             1 2.69
  16  0.832  0.870  0.387-  29 2.38   9 2.42  13 2.44  25 2.50   2 2.53  12 2.58  32 2.62  15 2.64
                             1 2.68
  17  0.559  0.217  0.433-  40 2.46  37 2.50  32 2.51  24 2.52  18 2.53  21 2.54  33 2.55   4 2.55
                            31 2.57  20 2.61   8 2.62   1 2.63
  18  0.808  0.218  0.433-  37 2.44  32 2.47  38 2.48   1 2.48  21 2.51  17 2.53  34 2.53  22 2.54
                            19 2.58   2 2.63   5 2.67  29 2.69
  19  0.062  0.221  0.434-  22 2.41  20 2.43  38 2.44  39 2.44   6 2.46  30 2.49  23 2.51  35 2.54
                             3 2.57  18 2.58   2 2.62  29 2.71
  20  0.302  0.204  0.433-  30 2.37  19 2.43  39 2.46   3 2.46  31 2.48  36 2.48   7 2.50  40 2.57
                            17 2.61  24 2.61  23 2.62   4 2.69
  21  0.686  0.465  0.429-  12 2.34  28 2.40   8 2.41  18 2.51  17 2.54  25 2.54   5 2.57  24 2.61
                            44 2.62  22 2.63  41 2.63  37 2.68
  22  0.945  0.460  0.434-  19 2.41  42 2.43  23 2.44  25 2.48  38 2.48   6 2.50  41 2.51  18 2.54
                             9 2.54  26 2.56   5 2.57  21 2.63
  23  0.185  0.470  0.433-  26 2.39  22 2.44  42 2.45  10 2.47  24 2.47  43 2.48   6 2.51  19 2.51
                            39 2.55   7 2.60  27 2.60  20 2.62
  24  0.429  0.463  0.431-  11 2.43   7 2.47  23 2.47  43 2.50  17 2.52  40 2.57  44 2.59  27 2.60
                            21 2.61  20 2.61  28 2.62   8 2.72
  25  0.825  0.706  0.432-  29 2.42   9 2.46  45 2.46  22 2.48  16 2.50  41 2.50  28 2.51  26 2.52
                            12 2.53  21 2.54  48 2.59  32 2.73
  26  0.074  0.710  0.432-  23 2.39  27 2.42   9 2.44  46 2.46  10 2.49  25 2.52  29 2.52  13 2.53
                            42 2.53  30 2.55  22 2.56  45 2.57
  27  0.312  0.727  0.432-  14 2.39  31 2.41  26 2.42  46 2.49  47 2.49  11 2.52  10 2.54  30 2.54
                            23 2.60  24 2.60  43 2.63  28 2.70
  28  0.577  0.706  0.434-  48 2.38  21 2.40  44 2.44  25 2.51  47 2.53  15 2.56  32 2.61  24 2.62
                            12 2.64  11 2.65  27 2.70  31 2.72
  29  0.936  0.949  0.432-  16 2.38  25 2.42  45 2.48  30 2.50  26 2.52  32 2.52  34 2.55  35 2.56
                            13 2.57   2 2.62  18 2.69  19 2.71
  30  0.181  0.973  0.435-  35 2.36  20 2.37  36 2.43   3 2.48  19 2.49  29 2.50  46 2.51  31 2.53
                            27 2.54  26 2.55  13 2.59  14 2.70
  31  0.430  0.965  0.431-  27 2.41  14 2.46  20 2.48   4 2.48  36 2.50  30 2.53  33 2.57  17 2.57
                            47 2.58  15 2.61  32 2.61  28 2.72
  32  0.688  0.974  0.431-   1 2.46  18 2.47  15 2.50  17 2.51  34 2.52  29 2.52  33 2.53  28 2.61
                            31 2.61  16 2.62  48 2.64  25 2.73
  33  0.562  0.042  0.478-  32 2.53  47 2.54  36 2.54  40 2.54  48 2.54  52 2.54  63 2.54  37 2.54
                            49 2.54  34 2.54  17 2.55  31 2.57
  34  0.813  0.042  0.478-  32 2.52  18 2.53  35 2.54  45 2.54  38 2.54  48 2.54  50 2.54  64 2.54
                            37 2.54  49 2.54  33 2.54  29 2.55
  35  0.062  0.042  0.478-  30 2.36  34 2.54  45 2.54  46 2.54  61 2.54  38 2.54  50 2.54  39 2.54
                            51 2.54  36 2.54  19 2.54  29 2.56
  36  0.313  0.042  0.478-  30 2.43  20 2.48  31 2.50  33 2.54  47 2.54  46 2.54  62 2.54  40 2.54
                            39 2.54  52 2.54  51 2.54  35 2.54
  37  0.688  0.292  0.478-  18 2.44  17 2.50  38 2.54  40 2.54  41 2.54  44 2.54  53 2.54  56 2.54
                            33 2.54  34 2.54  49 2.54  21 2.68
  38  0.937  0.292  0.478-  19 2.44  18 2.48  22 2.48  41 2.54  42 2.54  37 2.54  53 2.54  34 2.54
                            54 2.54  39 2.54  35 2.54  50 2.54
  39  0.187  0.292  0.478-  19 2.44  20 2.46  42 2.54  43 2.54  54 2.54  55 2.54  38 2.54  35 2.54
                            36 2.54  51 2.54  40 2.54  23 2.55
  40  0.438  0.292  0.478-  17 2.46  44 2.54  37 2.54  43 2.54  56 2.54  33 2.54  55 2.54  36 2.54
                            52 2.54  39 2.54  20 2.57  24 2.57
  41  0.813  0.542  0.478-  25 2.50  22 2.51  38 2.54  42 2.54  37 2.54  45 2.54  57 2.54  48 2.54
                            53 2.54  60 2.54  44 2.54  21 2.63
  42  0.062  0.542  0.478-  22 2.43  23 2.45  26 2.53  41 2.54  38 2.54  39 2.54  45 2.54  57 2.54
                            46 2.54  54 2.54  58 2.54  43 2.54
  43  0.313  0.542  0.478-  23 2.48  24 2.50  44 2.54  40 2.54  39 2.54  47 2.54  46 2.54  55 2.54
                            59 2.54  58 2.54  42 2.54  27 2.63
  44  0.562  0.542  0.478-  28 2.44  40 2.54  43 2.54  37 2.54  47 2.54  59 2.54  48 2.54  56 2.54
                            60 2.54  41 2.54  24 2.59  21 2.62
  45  0.937  0.792  0.478-  25 2.46  29 2.48  34 2.54  48 2.54  35 2.54  41 2.54  64 2.54  46 2.54
                            42 2.54  61 2.54  57 2.54  26 2.57
  46  0.187  0.792  0.478-  26 2.46  27 2.49  30 2.51  35 2.54  36 2.54  45 2.54  42 2.54  43 2.54
                            58 2.54  61 2.54  62 2.54  47 2.54
  47  0.438  0.792  0.478-  27 2.49  28 2.53  33 2.54  48 2.54  44 2.54  36 2.54  63 2.54  43 2.54
                            59 2.54  62 2.54  46 2.54  31 2.58
  48  0.688  0.792  0.478-  28 2.38  45 2.54  47 2.54  33 2.54  34 2.54  41 2.54  44 2.54  60 2.54
                            63 2.54  64 2.54  25 2.59  32 2.64
  49  0.688  0.125  0.524-  50 2.54  52 2.54  53 2.54  56 2.54  63 2.54  64 2.54  37 2.54  34 2.54
                            33 2.54  65 2.62  66 2.70  80 2.77
  50  0.937  0.125  0.524-  77 2.51  53 2.54  54 2.54  64 2.54  49 2.54  61 2.54  34 2.54  51 2.54
                            35 2.54  38 2.54  67 2.54
  51  0.187  0.125  0.524-  78 2.50  54 2.54  55 2.54  61 2.54  62 2.54  50 2.54  39 2.54  35 2.54
                            36 2.54  52 2.54  67 2.54  68 2.58
  52  0.438  0.125  0.524-  79 2.44  65 2.48  56 2.54  63 2.54  49 2.54  55 2.54  62 2.54  33 2.54
                            40 2.54  36 2.54  51 2.54  68 2.68
  53  0.813  0.375  0.524-  70 2.43  50 2.54  54 2.54  49 2.54  38 2.54  57 2.54  37 2.54  60 2.54
                            41 2.54  56 2.54  69 2.56
  54  0.062  0.375  0.524-  71 2.37  67 2.50  53 2.54  50 2.54  51 2.54  38 2.54  39 2.54  57 2.54
                            58 2.54  42 2.54  55 2.54  70 2.66
  55  0.313  0.375  0.524-  72 2.43  56 2.54  52 2.54  51 2.54  40 2.54  39 2.54  59 2.54  58 2.54
                            43 2.54  54 2.54  71 2.57  68 2.69
  56  0.562  0.375  0.524-  69 2.41  52 2.54  55 2.54  49 2.54  40 2.54  59 2.54  37 2.54  60 2.54
                            44 2.54  53 2.54  65 2.61  72 2.61
  57  0.937  0.625  0.524-  74 2.47  70 2.52  60 2.54  53 2.54  64 2.54  41 2.54  58 2.54  54 2.54
                            61 2.54  42 2.54  45 2.54  73 2.65
  58  0.187  0.625  0.524-  75 2.45  71 2.47  57 2.54  54 2.54  55 2.54  61 2.54  62 2.54  46 2.54
                            42 2.54  43 2.54  59 2.54  74 2.64
  59  0.438  0.625  0.524-  76 2.47  60 2.54  56 2.54  63 2.54  44 2.54  55 2.54  62 2.54  47 2.54
                            43 2.54  58 2.54  72 2.60  75 2.64
  60  0.688  0.625  0.524-  73 2.47  59 2.54  57 2.54  56 2.54  53 2.54  64 2.54  63 2.54  48 2.54
                            41 2.54  44 2.54  69 2.55  76 2.65
  61  0.062  0.875  0.524-  78 2.47  74 2.49  64 2.54  50 2.54  51 2.54  35 2.54  57 2.54  45 2.54
                            58 2.54  46 2.54  62 2.54  77 2.59
  62  0.313  0.875  0.524-  79 2.47  75 2.49  63 2.54  52 2.54  51 2.54  36 2.54  59 2.54  58 2.54
                            47 2.54  46 2.54  61 2.54  78 2.57
  63  0.562  0.875  0.524-  79 2.50  52 2.54  62 2.54  59 2.54  49 2.54  47 2.54  33 2.54  60 2.54
                            48 2.54  64 2.54  76 2.56  80 2.70
  64  0.813  0.875  0.524-  77 2.50  61 2.54  50 2.54  57 2.54  49 2.54  45 2.54  34 2.54  60 2.54
                            48 2.54  63 2.54  73 2.56  80 2.76
  65  0.549  0.201  0.571-  79 2.38  52 2.48  81 2.50  68 2.50  69 2.53  72 2.53  66 2.55  88 2.55
                            80 2.57  56 2.61  49 2.62  85 2.64
  66  0.799  0.204  0.576-  86 2.31  82 2.43  80 2.51  77 2.51  85 2.52  69 2.53  65 2.55  70 2.58
                            67 2.68  49 2.70
  67  0.062  0.213  0.570-  71 2.41  68 2.44  78 2.50  54 2.50  50 2.54  51 2.54  83 2.56  86 2.58
                            77 2.58  87 2.61  70 2.65  66 2.68
  68  0.302  0.200  0.573-  84 2.31  67 2.44  78 2.45  79 2.47  72 2.50  88 2.50  65 2.50  87 2.55
                            51 2.58  71 2.66  52 2.68  55 2.69
  69  0.674  0.450  0.569-  56 2.41  70 2.45  66 2.53  65 2.53  60 2.55  53 2.56  72 2.57  73 2.58
                            76 2.62  85 2.67  92 2.68  89 2.69
  70  0.915  0.463  0.570-  53 2.43  69 2.45  73 2.48  57 2.52  90 2.54  86 2.56  71 2.57  66 2.58
                            74 2.60  67 2.65  54 2.66  89 2.71
  71  0.168  0.458  0.568-  54 2.37  67 2.41  58 2.47  91 2.53  72 2.56  70 2.57  55 2.57  74 2.59
                            75 2.59  90 2.62  68 2.66  87 2.70
  72  0.420  0.448  0.570-  55 2.43  91 2.45  88 2.45  68 2.50  65 2.53  71 2.56  69 2.57  59 2.60
                            92 2.60  76 2.61  56 2.61  75 2.68
  73  0.794  0.709  0.571-  80 2.44  60 2.47  70 2.48  93 2.52  89 2.53  76 2.54  74 2.55  64 2.56
                            69 2.58  77 2.62  57 2.65
  74  0.046  0.717  0.570-  94 2.44  77 2.46  57 2.47  61 2.49  75 2.51  78 2.53  90 2.53  73 2.55
                            71 2.59  70 2.60  93 2.60  58 2.64
  75  0.293  0.716  0.569-  58 2.45  78 2.46  62 2.49  91 2.51  74 2.51  94 2.53  95 2.54  76 2.55
                            71 2.59  79 2.61  59 2.64  72 2.68
  76  0.544  0.708  0.571-  92 2.32  59 2.47  79 2.51  73 2.54  75 2.55  63 2.56  80 2.56  95 2.57
                            72 2.61  69 2.62  60 2.65  96 2.79
  77  0.929  0.963  0.570-  83 2.46  74 2.46  64 2.50  50 2.51  66 2.51  78 2.52  80 2.53  67 2.58
                            61 2.59  93 2.59  73 2.62  82 2.68
  78  0.177  0.962  0.569-  84 2.41  68 2.45  75 2.46  61 2.47  51 2.50  94 2.50  67 2.50  77 2.52
                            74 2.53  62 2.57  79 2.61  83 2.62
  79  0.434  0.964  0.568-  65 2.38  52 2.44  81 2.45  62 2.47  68 2.47  63 2.50  76 2.51  80 2.53
                            75 2.61  78 2.61  95 2.63  84 2.72
  80  0.681  0.953  0.575-  73 2.44  96 2.50  66 2.51  81 2.51  77 2.53  79 2.53  82 2.55  76 2.56
                            65 2.57  63 2.70  64 2.76  49 2.77
  81  0.529  0.039  0.616-  96 2.42  95 2.42  79 2.45  65 2.50  80 2.51  84 2.53  88 2.53  85 2.65

  82  0.811  0.045  0.621-  83 2.33  66 2.43  93 2.44  86 2.45  80 2.55  96 2.57  85 2.64  77 2.68

  83  0.039  0.044  0.616-  82 2.33  84 2.43  86 2.45  77 2.46  94 2.49  93 2.54  67 2.56  78 2.62
                            87 2.62
  84  0.279  0.047  0.615-  68 2.31  78 2.41  87 2.41  83 2.43  94 2.49  81 2.53  95 2.59  88 2.70
                            79 2.72
  85  0.665  0.295  0.620-  88 2.41  66 2.52  89 2.64  86 2.64  65 2.64  82 2.64  81 2.65  69 2.67
                            92 2.75
  86  0.925  0.290  0.616-  66 2.31  82 2.45  83 2.45  70 2.56  90 2.57  87 2.58  67 2.58  85 2.64
                            89 2.77
  87  0.178  0.295  0.619-  84 2.41  91 2.47  88 2.54  68 2.55  86 2.58  67 2.61  83 2.62  90 2.63
                            71 2.70
  88  0.428  0.303  0.616-  85 2.41  72 2.45  91 2.47  68 2.50  81 2.53  87 2.54  65 2.55  92 2.64
                            84 2.70
  89  0.786  0.561  0.619-  93 2.43  92 2.48  73 2.53  96 2.56  90 2.60  85 2.64  69 2.69  70 2.71
                            86 2.77
  90  0.042  0.550  0.616-  94 2.49  93 2.52  74 2.53  70 2.54  86 2.57  91 2.59  89 2.60  71 2.62
                            87 2.63
  91  0.297  0.539  0.613-  72 2.45  88 2.47  87 2.47  92 2.50  75 2.51  71 2.53  95 2.56  90 2.59
                            94 2.66
  92  0.542  0.573  0.615-  76 2.32  95 2.36  96 2.43  89 2.48  91 2.50  72 2.60  88 2.64  69 2.68
                            85 2.75
  93  0.912  0.795  0.617-  89 2.43  82 2.44  90 2.52  73 2.52  94 2.53  83 2.54  77 2.59  96 2.59
                            74 2.60
  94  0.161  0.798  0.615-  74 2.44  83 2.49  90 2.49  84 2.49  78 2.50  93 2.53  75 2.53  95 2.56
                            91 2.66
  95  0.414  0.797  0.617-  92 2.36  81 2.42  96 2.50  75 2.54  91 2.56  94 2.56  76 2.57  84 2.59
                            79 2.63
  96  0.659  0.811  0.623-  81 2.42  92 2.43  80 2.50  95 2.50  89 2.56  82 2.57  93 2.59  76 2.79

  97  0.818  0.364  0.684- 148 0.92 147 0.99
  98  0.859  0.827  0.199- 149 0.98 150 1.02
  99  0.144  0.965  0.696- 152 0.98 230 1.00
 100  0.491  0.302  0.692- 153 0.95 154 0.99
 101  0.724  0.309  0.777- 156 1.00 155 1.00
 102  0.303  0.346  0.732- 158 0.94 171 0.96
 103  0.018  0.584  0.206- 175 0.97 160 0.97
 104  0.578  0.698  0.826- 162 0.98 157 1.00
 105  0.635  0.579  0.702- 188 0.93 163 0.96
 106  0.448  0.852  0.694- 165 0.95 164 1.03
 107  0.816  0.798  0.797- 161 0.97 167 1.01
 108  0.904  0.987  0.746- 169 0.94 170 0.97
 109  0.789  0.051  0.278- 159 0.97 172 1.00
 110  0.360  0.961  0.744- 173 0.97 174 0.98
 111  0.882  0.296  0.827- 151 0.99 176 1.00
 112  0.603  0.990  0.772- 177 0.97 184 0.98
 113  0.305  0.978  0.190- 179 0.99 178 1.00
 114  0.989  0.086  0.194- 181 0.96 180 0.96
 115  0.079  0.355  0.687- 182 0.97 183 1.04
 116  0.274  0.151  0.290- 185 0.93 166 1.00
 117  0.131  0.488  0.810- 187 0.93 186 0.96
 118  0.577  0.795  0.214- 190 1.01 189 1.03
 119  0.992  0.639  0.715- 168 0.92 191 0.96
 120  0.855  0.825  0.683- 196 0.98 192 0.99
 121  0.632  0.410  0.177- 195 0.96 193 1.02
 122  0.706  0.684  0.303- 197 0.97 194 1.01
 123  0.970  0.861  0.306- 199 0.95 198 0.96
 124  0.197  0.873  0.283- 203 0.97 200 0.98
 125  0.243  0.720  0.226- 201 0.93 222 0.98
 126  0.266  0.259  0.790- 202 1.01 204 1.03
 127  0.449  0.201  0.833- 205 0.97 206 0.99
 128  0.568  0.419  0.328- 207 0.95 209 0.95
 129  0.711  0.106  0.713- 210 0.93 208 1.03
 130  0.445  0.825  0.316- 213 1.00 212 1.01
 131  0.907  0.540  0.767- 214 0.99 218 1.01
 132  0.960  0.570  0.321- 215 0.96 217 0.97
 133  0.031  0.146  0.324- 216 0.98 219 1.00
 134  0.291  0.472  0.330- 220 0.97 221 0.97
 135  0.273  0.621  0.683- 236 0.96 226 0.97
 136  0.994  0.229  0.255- 225 0.95 223 0.98
 137  0.417  0.436  0.262- 227 1.00 224 1.00
 138  0.542  0.057  0.246- 229 0.94 228 0.99
 139  0.373  0.729  0.783- 231 0.94 233 0.97
 140  0.565  0.530  0.762- 232 0.96 234 0.97
 141  0.229  0.379  0.205- 211 0.91 235 0.97
 142  0.085  0.826  0.818- 238 0.92 237 0.95
 143  0.132  0.025  0.774- 240 0.97 239 0.98
 144  0.644  0.505  0.237- 241 1.00 242 1.02
 145  0.882  0.481  0.258- 243 0.99 244 1.01
 146  0.609  0.098  0.322- 246 0.97 245 1.00
 147  0.802  0.364  0.662-  97 0.99
 148  0.909  0.361  0.685-  97 0.92
 149  0.765  0.839  0.203-  98 0.98
 150  0.897  0.932  0.204-  98 1.02
 151  0.946  0.381  0.826- 111 0.99
 152  0.156  0.960  0.674-  99 0.98
 153  0.498  0.250  0.673- 100 0.95
 154  0.535  0.400  0.687- 100 0.99
 155  0.647  0.381  0.777- 101 1.00
 156  0.672  0.217  0.771- 101 1.00
 157  0.674  0.723  0.823- 104 1.00
 158  0.260  0.425  0.721- 102 0.94
 159  0.752  0.083  0.297- 109 0.97
 160  0.963  0.671  0.201- 103 0.97
 161  0.890  0.807  0.811- 107 0.97
 162  0.591  0.588  0.828- 104 0.98
 163  0.618  0.679  0.694- 105 0.96
 164  0.405  0.752  0.687- 106 1.03
 165  0.432  0.915  0.677- 106 0.95
 166  0.254  0.043  0.284- 116 1.00
 167  0.833  0.698  0.786- 107 1.01
 168  0.006  0.597  0.697- 119 0.92
 169  0.830  0.045  0.741- 108 0.94
 170  0.863  0.923  0.762- 108 0.97
 171  0.362  0.312  0.716- 102 0.96
 172  0.715  0.050  0.264- 109 1.00
 173  0.267  0.979  0.748- 110 0.97
 174  0.354  0.912  0.725- 110 0.98
 175  0.973  0.540  0.223- 103 0.97
 176  0.839  0.291  0.807- 111 1.00
 177  0.513  0.997  0.765- 112 0.97
 178  0.308  0.869  0.197- 113 1.00
 179  0.226  0.002  0.202- 113 0.99
 180  0.011  0.163  0.209- 114 0.96
 181  0.969  0.143  0.177- 114 0.96
 182  0.114  0.265  0.696- 115 0.97
 183  0.082  0.332  0.664- 115 1.04
 184  0.607  0.936  0.791- 112 0.98
 185  0.339  0.193  0.278- 116 0.93
 186  0.184  0.404  0.804- 117 0.96
 187  0.089  0.535  0.794- 117 0.93
 188  0.707  0.541  0.691- 105 0.93
 189  0.607  0.695  0.224- 118 1.03
 190  0.562  0.750  0.194- 118 1.01
 191  0.922  0.708  0.712- 119 0.96
 192  0.812  0.811  0.663- 120 0.99
 193  0.565  0.334  0.169- 121 1.02
 194  0.640  0.771  0.303- 122 1.01
 195  0.715  0.383  0.168- 121 0.96
 196  0.793  0.899  0.691- 120 0.98
 197  0.644  0.602  0.306- 122 0.97
 198  0.987  0.927  0.323- 123 0.96
 199  0.894  0.896  0.296- 123 0.95
 200  0.105  0.871  0.290- 124 0.98
 201  0.318  0.664  0.231- 125 0.93
 202  0.273  0.292  0.768- 126 1.01
 203  0.199  0.828  0.264- 124 0.97
 204  0.213  0.163  0.785- 126 1.03
 205  0.409  0.125  0.846- 127 0.97
 206  0.388  0.188  0.816- 127 0.99
 207  0.485  0.456  0.322- 128 0.95
 208  0.717  0.216  0.705- 129 1.03
 209  0.570  0.327  0.317- 128 0.95
 210  0.625  0.084  0.719- 129 0.93
 211  0.274  0.317  0.192- 141 0.91
 212  0.358  0.836  0.306- 130 1.01
 213  0.426  0.847  0.338- 130 1.00
 214  0.858  0.444  0.763- 131 0.99
 215  0.866  0.579  0.323- 132 0.96
 216  0.126  0.154  0.320- 133 0.98
 217  0.979  0.677  0.319- 132 0.97
 218  0.949  0.554  0.747- 131 1.01
 219  0.007  0.242  0.335- 133 1.00
 220  0.284  0.526  0.311- 134 0.97
 221  0.277  0.366  0.324- 134 0.97
 222  0.176  0.659  0.215- 125 0.98
 223  0.084  0.208  0.261- 136 0.98
 224  0.367  0.412  0.243- 137 1.00
 225  0.942  0.158  0.265- 136 0.95
 226  0.195  0.683  0.686- 135 0.97
 227  0.507  0.442  0.253- 137 1.00
 228  0.548  0.973  0.231- 138 0.99
 229  0.512  0.142  0.235- 138 0.94
 230  0.053  0.937  0.702-  99 1.00
 231  0.374  0.808  0.768- 139 0.94
 232  0.592  0.534  0.742- 140 0.96
 233  0.451  0.707  0.794- 139 0.97
 234  0.477  0.569  0.762- 140 0.97
 235  0.176  0.443  0.192- 141 0.97
 236  0.277  0.578  0.663- 135 0.96
 237  0.071  0.872  0.837- 142 0.95
 238  0.128  0.736  0.822- 142 0.92
 239  0.046  0.022  0.765- 143 0.98
 240  0.134  0.938  0.788- 143 0.97
 241  0.648  0.449  0.218- 144 1.00
 242  0.730  0.478  0.248- 144 1.02
 243  0.874  0.549  0.276- 145 0.99
 244  0.925  0.383  0.265- 145 1.01
 245  0.616  0.077  0.344- 146 1.00
 246  0.541  0.032  0.313- 146 0.97
 
  LATTYP: Found a simple orthorhombic cell.
 ALAT       =     8.7818242400
 B/A-ratio  =     1.1547005384
 C/A-ratio  =     5.1189056819
  
  Lattice vectors:
  
 A1 = (   0.0000000000,  -8.7818242400,   0.0000000000)
 A2 = (  10.1403771780,   0.0000000000,   0.0000000000)
 A3 = (   0.0000000000,   0.0000000000,  44.9533300000)


Analysis of symmetry for initial positions (statically):
=====================================================================
 Subroutine PRICEL returns:
 Original cell was already a primitive cell.
 

 Routine SETGRP: Setting up the symmetry group for a 
 simple orthorhombic supercell.


 Subroutine GETGRP returns: Found  1 space group operations
 (whereof  1 operations were pure point group operations)
 out of a pool of  8 trial point group operations.


The static configuration has the point symmetry C_1 .


Analysis of symmetry for dynamics (positions and initial velocities):
=====================================================================
 Subroutine PRICEL returns:
 Original cell was already a primitive cell.
 

 Routine SETGRP: Setting up the symmetry group for a 
 simple orthorhombic supercell.


 Subroutine GETGRP returns: Found  1 space group operations
 (whereof  1 operations were pure point group operations)
 out of a pool of  8 trial point group operations.


The dynamic configuration has the point symmetry C_1 .


 Subroutine INISYM returns: Found  1 space group operations
 (whereof  1 operations are pure point group operations),
 and found     1 'primitive' translations


----------------------------------------------------------------------------------------

                                     Primitive cell                                     

  volume of cell :    4003.1394

  direct lattice vectors                    reciprocal lattice vectors
    10.140377178  0.000000000  0.000000000     0.098615661  0.000000000  0.000000000
     0.000000000  8.781824240  0.000000000     0.000000000  0.113871557  0.000000000
     0.000000000  0.000000000 44.953330000     0.000000000  0.000000000  0.022245293

  length of vectors
    10.140377178  8.781824240 44.953330000     0.098615661  0.113871557  0.022245293

  position of ions in fractional coordinates (direct lattice)
     0.700541989  0.134666781  0.386472593
     0.938706700  0.130510469  0.385598130
     0.185075956  0.119378386  0.387674951
     0.446861090  0.120405507  0.385534954
     0.830421773  0.388660705  0.384359068
     0.064940385  0.375458437  0.387888728
     0.311811873  0.365340949  0.387164199
     0.579933063  0.379778724  0.383983567
     0.951901476  0.631620475  0.388130757
     0.191235490  0.622379798  0.386816283
     0.435216553  0.623618721  0.387462508
     0.704154281  0.617075661  0.386149591
     0.072853306  0.874719169  0.386194527
     0.315227919  0.870770103  0.386879014
     0.571332792  0.866554578  0.386834301
     0.832114018  0.870478592  0.387010484
     0.558745489  0.217481009  0.432701649
     0.808212540  0.217892086  0.433291149
     0.062274804  0.221130593  0.433589236
     0.301697851  0.203909797  0.432817324
     0.686151992  0.465372557  0.428868785
     0.944972739  0.459819041  0.433533623
     0.185028620  0.469836322  0.432986388
     0.428857815  0.462532600  0.431364706
     0.825100472  0.705618768  0.432367969
     0.073620536  0.710167937  0.432276763
     0.311985436  0.726646290  0.431867450
     0.577244800  0.705987712  0.434334453
     0.935858680  0.949157006  0.431963105
     0.181111606  0.972597466  0.434748216
     0.430494835  0.964501198  0.431498178
     0.688002022  0.973530074  0.431133355
     0.562499787  0.041666741  0.477852920
     0.812500349  0.041666741  0.477852920
     0.062499648  0.041666741  0.477852920
     0.312500210  0.041666741  0.477852920
     0.687500068  0.291667190  0.477852920
     0.937499645  0.291667190  0.477852920
     0.187499929  0.291667190  0.477852920
     0.437500492  0.291667190  0.477852920
     0.812500349  0.541666500  0.477852920
     0.062499648  0.541666500  0.477852920
     0.312500210  0.541666500  0.477852920
     0.562499787  0.541666500  0.477852920
     0.937499645  0.791666949  0.477852920
     0.187499929  0.791666949  0.477852920
     0.437500492  0.791666949  0.477852920
     0.687500068  0.791666949  0.477852920
     0.687500068  0.125000224  0.523898452
     0.937499645  0.125000224  0.523898452
     0.187499929  0.125000224  0.523898452
     0.437500492  0.125000224  0.523898452
     0.812500349  0.374999534  0.523898452
     0.062499648  0.374999534  0.523898452
     0.312500210  0.374999534  0.523898452
     0.562499787  0.374999534  0.523898452
     0.937499645  0.624999983  0.523898452
     0.187499929  0.624999983  0.523898452
     0.437500492  0.624999983  0.523898452
     0.687500068  0.624999983  0.523898452
     0.062499648  0.875000432  0.523898452
     0.312500210  0.875000432  0.523898452
     0.562499787  0.875000432  0.523898452
     0.812500349  0.875000432  0.523898452
     0.548658093  0.200764665  0.570762611
     0.798609347  0.203869942  0.576241627
     0.061673248  0.213268900  0.569728205
     0.301890151  0.199569013  0.573002712
     0.673502561  0.449843893  0.569007457
     0.914878198  0.463039329  0.569772695
     0.168008543  0.458260139  0.567928561
     0.420169775  0.448308904  0.570093028
     0.794442836  0.708585122  0.570537933
     0.045509155  0.717212031  0.569850554
     0.293322423  0.715716898  0.569492405
     0.544368311  0.708475805  0.570584649
     0.928727781  0.962970764  0.569772695
     0.176790268  0.961595196  0.569254380
     0.434015414  0.964044573  0.568095400
     0.681143303  0.952873773  0.575471939
     0.528510913  0.038859808  0.616196397
     0.810500424  0.045238892  0.620532005
     0.039257909  0.044149141  0.615749267
     0.279150366  0.047387648  0.614630329
     0.665084728  0.294771329  0.619991444
     0.924569159  0.290169779  0.615613571
     0.178294157  0.295324745  0.618859159
     0.427991970  0.302688818  0.616441096
     0.785673931  0.560669385  0.618843587
     0.041708508  0.549812871  0.615577978
     0.297147724  0.539037206  0.613404613
     0.541961103  0.572780764  0.614850557
     0.912389139  0.794694793  0.616997228
     0.161360862  0.797981127  0.614599185
     0.413837664  0.796755869  0.616523403
     0.658527773  0.811132153  0.623314891
     0.818277255  0.364371902  0.683577390
     0.858594296  0.826873757  0.198647130
     0.143803329  0.965201508  0.695520888
     0.491330836  0.301934988  0.691817047
     0.724004627  0.308991609  0.776774045
     0.302595253  0.345646863  0.731507099
     0.017978621  0.583921957  0.205994528
     0.577612637  0.698138545  0.825905000
     0.635480307  0.579000429  0.701767366
     0.448057298  0.852289888  0.693805776
     0.815676760  0.797810319  0.797057304
     0.903692224  0.986769920  0.746391424
     0.789228040  0.050909696  0.278210758
     0.360228218  0.960656894  0.744318163
     0.882207816  0.295718740  0.826792587
     0.603239889  0.989681615  0.771935694
     0.305373256  0.977718270  0.190172341
     0.989322175  0.086314640  0.194345113
     0.079057217  0.355319113  0.686660588
     0.273596332  0.150543892  0.290038135
     0.131431995  0.488278959  0.809761591
     0.576983469  0.795067153  0.214129632
     0.992479848  0.638747696  0.715299178
     0.854685171  0.824985766  0.682749865
     0.632074122  0.410412450  0.176835843
     0.705890903  0.684098182  0.302584925
     0.970130581  0.860942988  0.306237158
     0.196630753  0.873441530  0.283183915
     0.243105356  0.720268344  0.225528120
     0.266243548  0.259047544  0.789696336
     0.449171655  0.200763526  0.833160302
     0.568382211  0.419031388  0.327683845
     0.711461701  0.105934710  0.713103568
     0.445097842  0.825087112  0.316132531
     0.906997821  0.540124679  0.766694703
     0.959721698  0.570251677  0.321096346
     0.031010681  0.146242963  0.323828068
     0.290911270  0.471539840  0.329563127
     0.273004638  0.620987149  0.682518514
     0.994051782  0.229454604  0.254671233
     0.417092967  0.435894627  0.261573058
     0.541895030  0.057185157  0.246027380
     0.372648860  0.728959021  0.782502208
     0.565421769  0.529676964  0.762032090
     0.229130530  0.378967958  0.205136750
     0.085472166  0.825814751  0.818323804
     0.131877738  0.025400190  0.774473882
     0.644486875  0.505374496  0.237146614
     0.882318265  0.480954741  0.258104350
     0.608836327  0.097846413  0.321798630
     0.802472123  0.363726250  0.661946067
     0.908592436  0.361157308  0.685294727
     0.764986338  0.839203769  0.203407401
     0.896580062  0.931695941  0.203779787
     0.945948048  0.380736383  0.825747058
     0.155985322  0.960037433  0.674007465
     0.497904556  0.249597343  0.673264472
     0.535364701  0.400192478  0.687163331
     0.647333909  0.380873029  0.776547143
     0.671887237  0.216967449  0.771361766
     0.673500589  0.722502504  0.822886313
     0.260215173  0.425440079  0.721367694
     0.751902012  0.083215056  0.297146396
     0.963358643  0.671377591  0.200847857
     0.889679924  0.806694578  0.810551298
     0.591026339  0.587790174  0.827931546
     0.617611149  0.679267751  0.694159476
     0.405343897  0.751720806  0.687303477
     0.431844883  0.915000093  0.676890455
     0.254118753  0.043172123  0.283724698
     0.832910833  0.697919912  0.786448523
     0.006195036  0.596631162  0.696888974
     0.830048020  0.045241170  0.740534239
     0.863248955  0.923254643  0.761558265
     0.361786345  0.311760965  0.716313563
     0.714528648  0.049706073  0.263765109
     0.267157715  0.978707813  0.748404623
     0.354272818  0.911890261  0.724757877
     0.972757702  0.540134928  0.222842891
     0.839329726  0.291036342  0.806749578
     0.513009517  0.997385026  0.764872814
     0.307965862  0.869385425  0.196924010
     0.226449170  0.002402690  0.202403915
     0.011081442  0.162799888  0.208880188
     0.969337711  0.143330129  0.176665889
     0.114297524  0.264954062  0.696223839
     0.081865791  0.332360330  0.664052696
     0.607058287  0.935721301  0.791017707
     0.339361144  0.193374401  0.278245015
     0.184238709  0.403686057  0.803548480
     0.088772832  0.534533586  0.793827287
     0.706684759  0.540791966  0.691111871
     0.607422179  0.695453454  0.224146242
     0.562193092  0.749557247  0.193825241
     0.921793128  0.708480360  0.711704339
     0.811760732  0.811265382  0.663220722
     0.565079572  0.333618610  0.169247973
     0.640076783  0.770633733  0.303378860
     0.714598666  0.383465885  0.168033825
     0.793274240  0.899029608  0.691472245
     0.644452360  0.602237059  0.306367292
     0.987379446  0.927076172  0.322705348
     0.893519032  0.896260251  0.296260588
     0.104783085  0.870724555  0.289923127
     0.317895473  0.664466726  0.230897689
     0.273430658  0.292360668  0.768365325
     0.199011335  0.828014750  0.263544214
     0.213253409  0.162953614  0.784651104
     0.408566657  0.125208609  0.846051386
     0.387679860  0.187877821  0.816306156
     0.484605248  0.456301549  0.321694967
     0.716908244  0.216103164  0.705453411
     0.570169127  0.326525551  0.316588560
     0.624915611  0.083816298  0.718635972
     0.273524342  0.316754233  0.192314340
     0.358017255  0.835568989  0.305548888
     0.425990072  0.847489063  0.337512927
     0.857960197  0.444224331  0.763073169
     0.865688706  0.579063058  0.322827920
     0.125848376  0.153995339  0.320003657
     0.978947807  0.677459471  0.318955459
     0.948937089  0.554001067  0.746573836
     0.006818287  0.241885961  0.334772307
     0.284323744  0.526132142  0.310832590
     0.277369367  0.366076559  0.323787137
     0.175938229  0.659416522  0.215447888
     0.084162550  0.207521803  0.261006693
     0.367152024  0.412365347  0.242896355
     0.941693769  0.158016144  0.265101829
     0.195367486  0.683117748  0.686286867
     0.507120190  0.441589343  0.252750130
     0.548122609  0.972885561  0.231345042
     0.512279761  0.142281372  0.235319386
     0.052748531  0.937274509  0.702049882
     0.374360828  0.807571389  0.768280793
     0.592375401  0.534335449  0.741508582
     0.451338241  0.707157173  0.794076434
     0.476505944  0.568905715  0.761992048
     0.175757762  0.442689343  0.192078985
     0.277385146  0.578345667  0.662898166
     0.071386891  0.872305092  0.837115452
     0.128367020  0.735695662  0.822307936
     0.045635383  0.021620793  0.764545808
     0.133923026  0.937643453  0.787634198
     0.648378249  0.449047930  0.217843483
     0.730401825  0.478142113  0.247721804
     0.874370829  0.548653659  0.275731520
     0.924833449  0.383126547  0.265267334
     0.616041188  0.076616200  0.343540734
     0.541414772  0.032399874  0.313193928

  ion indices of the primitive-cell ions
   primitive index   ion index
                 1           1
                 2           2
                 3           3
                 4           4
                 5           5
                 6           6
                 7           7
                 8           8
                 9           9
                10          10
                11          11
                12          12
                13          13
                14          14
                15          15
                16          16
                17          17
                18          18
                19          19
                20          20
                21          21
                22          22
                23          23
                24          24
                25          25
                26          26
                27          27
                28          28
                29          29
                30          30
                31          31
                32          32
                33          33
                34          34
                35          35
                36          36
                37          37
                38          38
                39          39
                40          40
                41          41
                42          42
                43          43
                44          44
                45          45
                46          46
                47          47
                48          48
                49          49
                50          50
                51          51
                52          52
                53          53
                54          54
                55          55
                56          56
                57          57
                58          58
                59          59
                60          60
                61          61
                62          62
                63          63
                64          64
                65          65
                66          66
                67          67
                68          68
                69          69
                70          70
                71          71
                72          72
                73          73
                74          74
                75          75
                76          76
                77          77
                78          78
                79          79
                80          80
                81          81
                82          82
                83          83
                84          84
                85          85
                86          86
                87          87
                88          88
                89          89
                90          90
                91          91
                92          92
                93          93
                94          94
                95          95
                96          96
                97          97
                98          98
                99          99
               100         100
               101         101
               102         102
               103         103
               104         104
               105         105
               106         106
               107         107
               108         108
               109         109
               110         110
               111         111
               112         112
               113         113
               114         114
               115         115
               116         116
               117         117
               118         118
               119         119
               120         120
               121         121
               122         122
               123         123
               124         124
               125         125
               126         126
               127         127
               128         128
               129         129
               130         130
               131         131
               132         132
               133         133
               134         134
               135         135
               136         136
               137         137
               138         138
               139         139
               140         140
               141         141
               142         142
               143         143
               144         144
               145         145
               146         146
               147         147
               148         148
               149         149
               150         150
               151         151
               152         152
               153         153
               154         154
               155         155
               156         156
               157         157
               158         158
               159         159
               160         160
               161         161
               162         162
               163         163
               164         164
               165         165
               166         166
               167         167
               168         168
               169         169
               170         170
               171         171
               172         172
               173         173
               174         174
               175         175
               176         176
               177         177
               178         178
               179         179
               180         180
               181         181
               182         182
               183         183
               184         184
               185         185
               186         186
               187         187
               188         188
               189         189
               190         190
               191         191
               192         192
               193         193
               194         194
               195         195
               196         196
               197         197
               198         198
               199         199
               200         200
               201         201
               202         202
               203         203
               204         204
               205         205
               206         206
               207         207
               208         208
               209         209
               210         210
               211         211
               212         212
               213         213
               214         214
               215         215
               216         216
               217         217
               218         218
               219         219
               220         220
               221         221
               222         222
               223         223
               224         224
               225         225
               226         226
               227         227
               228         228
               229         229
               230         230
               231         231
               232         232
               233         233
               234         234
               235         235
               236         236
               237         237
               238         238
               239         239
               240         240
               241         241
               242         242
               243         243
               244         244
               245         245
               246         246

----------------------------------------------------------------------------------------

 
 
 KPOINTS: KPOINTS created by Atomic Simulation Env

Automatic generation of k-mesh.
 Grid dimensions read from file:
 generate k-points for:    2    2    1

 Generating k-lattice:

  Cartesian coordinates                     Fractional coordinates (reciprocal lattice)
     0.049307831  0.000000000  0.000000000     0.500000000  0.000000000  0.000000000
     0.000000000  0.056935779  0.000000000     0.000000000  0.500000000  0.000000000
     0.000000000  0.000000000  0.022245293     0.000000000  0.000000000  1.000000000

  Length of vectors
     0.049307831  0.056935779  0.022245293

  Shift w.r.t. Gamma in fractional coordinates (k-lattice)
     0.500000000  0.500000000  0.000000000

 
 Subroutine IBZKPT returns following result:
 ===========================================
 
 Found      2 irreducible k-points:
 
 Following reciprocal coordinates:
            Coordinates               Weight
  0.250000  0.250000  0.000000      2.000000
 -0.250000  0.250000  0.000000      2.000000
 
 Following cartesian coordinates:
            Coordinates               Weight
  0.024654  0.028468  0.000000      2.000000
 -0.024654  0.028468  0.000000      2.000000
 


--------------------------------------------------------------------------------------------------------




 Dimension of arrays:
   k-points           NKPTS =      2   k-points in BZ     NKDIM =      2   number of bands    NBANDS=    874
   number of dos      NEDOS =    301   number of ions     NIONS =    246
   non local maximal  LDIM  =      6   non local SUM 2l+1 LMDIM =     18
   total plane-waves  NPLWV = ******
   max r-space proj   IRMAX =   8794   max aug-charges    IRDMAX=  24703
   dimension x,y,z NGX =    96 NGY =   84 NGZ =  420
   dimension x,y,z NGXF=   192 NGYF=  168 NGZF=  840
   support grid    NGXF=   192 NGYF=  168 NGZF=  840
   ions per type =              96  50 100
   NGX,Y,Z   is equivalent  to a cutoff of  15.74, 15.90, 15.53 a.u.
   NGXF,Y,Z  is equivalent  to a cutoff of  31.48, 31.80, 31.06 a.u.

 SYSTEM =  unknown system                          
 POSCAR =  Cu O  H                                 

 Startparameter for this run:
   NWRITE =      2    write-flag & timer
   PREC   = accura    normal or accurate (medium, high low for compatibility)
   ISTART =      1    job   : 0-new  1-cont  2-samecut
   ICHARG =      1    charge: 1-file 2-atom 10-const
   ISPIN  =      1    spin polarized calculation?
   LNONCOLLINEAR =      F non collinear calculations
   LSORBIT =      F    spin-orbit coupling
   INIWAV =      1    electr: 0-lowe 1-rand  2-diag
   LASPH  =      T    aspherical Exc in radial PAW
 Electronic Relaxation 1
   ENCUT  =  800.0 eV  58.80 Ry    7.67 a.u.  23.39 20.25103.67*2*pi/ulx,y,z
   ENINI  =  800.0     initial cutoff
   ENAUG  = 1000.0 eV  augmentation charge cutoff
   NELM   =    300;   NELMIN=  2; NELMDL=  0     # of ELM steps 
   EDIFF  = 0.1E-07   stopping-criterion for ELM
   LREAL  =      T    real-space projection
   NLSPLINE    = F    spline interpolate recip. space projectors
   LCOMPAT=      F    compatible to vasp.4.4
   GGA_COMPAT  = T    GGA compatible to vasp.4.4-vasp.4.6
   LMAXPAW     = -100 max onsite density
   LMAXMIX     =    2 max onsite mixed and CHGCAR
   VOSKOWN=      0    Vosko Wilk Nusair interpolation
   ROPT   =   -0.00025  -0.00025  -0.00025
 Ionic relaxation
   EDIFFG = 0.1E-06   stopping-criterion for IOM
   NSW    =      0    number of steps for IOM
   NBLOCK =      1;   KBLOCK =      1    inner block; outer block 
   IBRION =     -1    ionic relax: 0-MD 1-quasi-New 2-CG
   NFREE  =      0    steps in history (QN), initial steepest desc. (CG)
   ISIF   =      2    stress and relaxation
   IWAVPR =     10    prediction:  0-non 1-charg 2-wave 3-comb
   ISYM   =      2    0-nonsym 1-usesym 2-fastsym
   LCORR  =      T    Harris-Foulkes like correction to forces

   POTIM  = 0.5000    time-step for ionic-motion
   TEIN   =    0.0    initial temperature
   TEBEG  =    0.0;   TEEND  =   0.0 temperature during run
   SMASS  =  -3.00    Nose mass-parameter (am)
   estimated Nose-frequenzy (Omega)   =  0.10E-29 period in steps = 0.13E+47 mass=  -0.235E-26a.u.
   SCALEE = 1.0000    scale energy and forces
   NPACO  =    256;   APACO  = 10.0  distance and # of slots for P.C.
   PSTRESS=    0.0 pullay stress

  Mass of Ions in am
   POMASS =  63.55 16.00  1.00
  Ionic Valenz
   ZVAL   =  11.00  6.00  1.00
  Atomic Wigner-Seitz radii
   RWIGS  =  -1.00 -1.00 -1.00
  virtual crystal weights 
   VCA    =   1.00  1.00  1.00
   NELECT =    1456.0000    total number of electrons
   NUPDOWN=      -1.0000    fix difference up-down

 DOS related values:
   EMIN   =  10.00;   EMAX   =-10.00  energy-range for DOS
   EFERMI =   0.00;   METHOD = LEGACY      
   ISMEAR =     0;   SIGMA  =   0.10  broadening in eV -4-tet -1-fermi 0-gaus

 Electronic relaxation 2 (details)
   IALGO  =     58    algorithm
   LDIAG  =      T    sub-space diagonalisation (order eigenvalues)
   LSUBROT=      F    optimize rotation matrix (better conditioning)
   TURBO    =      0    0=normal 1=particle mesh
   IRESTART =      0    0=no restart 2=restart with 2 vectors
   NREBOOT  =      0    no. of reboots
   NMIN     =      0    reboot dimension
   EREF     =   0.00    reference energy to select bands
   IMIX   =      4    mixing-type and parameters
     AMIX     =   0.40;   BMIX     =  1.00
     AMIX_MAG =   1.60;   BMIX_MAG =  1.00
     AMIN     =   0.10
     WC   =   100.;   INIMIX=   1;  MIXPRE=   1;  MAXMIX= -45

 Intra band minimization:
   WEIMIN = 0.0000     energy-eigenvalue tresh-hold
   EBREAK =  0.29E-11  absolut break condition
   DEPER  =   0.30     relativ break condition  

   TIME   =   0.40     timestep for ELM

  volume/ion in A,a.u.               =      16.27       109.82
  Fermi-wavevector in a.u.,A,eV,Ry     =   1.168589  2.208313 18.580113  1.365600
  Thomas-Fermi vector in A             =   2.305073
 
 Write flags
   LWAVE        =      T    write WAVECAR
   LDOWNSAMPLE  =      F    k-point downsampling of WAVECAR
   LCHARG       =      T    write CHGCAR
   LVTOT        =      F    write LOCPOT, total local potential
   LVHAR        =      T    write LOCPOT, Hartree potential only
   WRT_POTENTIAL=  hartree ionic  ! write potential to hdf5 file
   LELF         =      F    write electronic localiz. function (ELF)
   LORBIT       =      0    0 simple, 1 ext, 2 COOP (PROOUT), +10 PAW based schemes


 Dipole corrections
   LMONO      =      F    monopole corrections only (constant potential shift)
   LDIPOL     =      T    correct potential (dipole corrections)
   IDIPOL     =      3    1-x, 2-y, 3-z, 4-all directions 
   EPSILON    =  1.0000000 bulk dielectric constant
   LVACPOTAV  =      T  vacuum potentials using an averaging scheme for the charge density
   VACPOTFLAT =  0.1000000 required flatness to determine vacuum potential
 Exchange correlation treatment:
   METAGGA = R2SCAN    functional components
   XC_C    = 1    coefficients multiplying the functional components
   LIBXC   =     F    Libxc                    
   VOSKOWN =     0    Vosko Wilk Nusair interpolation
   LHFCALC =     F    Hartree Fock is set to
   LHFONE  =     F    Hartree Fock one center treatment
   AEXX    =    0.0000 exact exchange contribution

 Parameters of functionals:
   R2SCAN:
     No parameter
 
 Accuracy and mixing parameters for tau-dependent meta-GGA functionals:
   LMAXTAU = 6
   LMIXTAU = T
 
 Van der Waals corrections
   IVDW    =     0    specifies the selected vdW correction

 Linear response parameters
   LEPSILON=     F    determine dielectric tensor
   LRPA    =     F    only Hartree local field effects (RPA)
   LNABLA  =     F    use nabla operator in PAW spheres
   LVEL    =     F    velocity operator in full k-point grid
   CSHIFT  =0.1000    complex shift for real part using Kramers Kronig
   OMEGAMAX=  -1.0    maximum frequency
   DEG_THRESHOLD= 0.2000000E-02 threshold for treating states as degnerate
   RTIME   =   -0.100 relaxation time in fs
  (WPLASMAI=    0.000 imaginary part of plasma frequency in eV, 0.658/RTIME)
   DFIELD  = 0.0000000 0.0000000 0.0000000 field for delta impulse in time
 
  Optional k-point grid parameters
   LKPOINTS_OPT  =     F    use optional k-point grid
   KPOINTS_OPT_MODE=     1    mode for optional k-point grid
 
 Orbital magnetization related:
   ORBITALMAG=     F  switch on orbital magnetization
   LCHIMAG   =     F  perturbation theory with respect to B field
   DQ        =  0.001000  dq finite difference perturbation B field
   LLRAUG    =     F  two centre corrections for induced B field
   LBONE     =     F  B-component reconstruction in AE one-centre
   LVGVCALC  =     T  calculate vGv susceptibility
   LVGVAPPL  =     F  apply vGv susceptibility instead of pGv for G=0

 Random number generation:
   RANDOM_GENERATOR = DEFAULT
   PCG_SEED         = not used


--------------------------------------------------------------------------------------------------------


 Static calculation
 charge density and potential will be updated during run
 non-spin polarized calculation
 Conjugate gradient for all bands (Freysoldt, et al. PRB 79, 241103 (2009))
 preconditioned conjugated gradient                                        
 perform sub-space diagonalisation
    before iterative eigenvector-optimisation
 modified Broyden-mixing scheme, WC =      100.0
 initial mixing is a Kerker type mixing with AMIX =  0.4000 and BMIX =      1.0000
 Hartree-type preconditioning will be used
 using additional bands           146
 real space projection scheme for non local part
 use partial core corrections
 no Harris-corrections to forces 
 use gradient corrections 
 use of overlap-Matrix (Vanderbilt PP)
 Gauss-broadening in eV      SIGMA  =   0.10


--------------------------------------------------------------------------------------------------------


  energy-cutoff  :      800.00
  volume of cell :     4003.14
      direct lattice vectors                 reciprocal lattice vectors
    10.140377178  0.000000000  0.000000000     0.098615661  0.000000000  0.000000000
     0.000000000  8.781824240  0.000000000     0.000000000  0.113871557  0.000000000
     0.000000000  0.000000000 44.953330000     0.000000000  0.000000000  0.022245293

  length of vectors
    10.140377178  8.781824240 44.953330000     0.098615661  0.113871557  0.022245293


 
 old parameters found on file WAVECAR:
  energy-cutoff  :      800.00
  volume of cell :     4003.14
      direct lattice vectors                 reciprocal lattice vectors
    10.140377178  0.000000000  0.000000000     0.098615661  0.000000000  0.000000000
     0.000000000  8.781824240  0.000000000     0.000000000  0.113871557  0.000000000
     0.000000000  0.000000000 44.953330000     0.000000000  0.000000000  0.022245293

  length of vectors

 
 k-points in units of 2pi/SCALE and weight: KPOINTS created by Atomic Simulation Env
   0.02465392  0.02846789  0.00000000       0.500
  -0.02465392  0.02846789  0.00000000       0.500
 
 k-points in reciprocal lattice and weights: KPOINTS created by Atomic Simulation Env
   0.25000000  0.25000000  0.00000000       0.500
  -0.25000000  0.25000000  0.00000000       0.500
 
 position of ions in fractional coordinates (direct lattice) 
   0.70054199  0.13466678  0.38647259
   0.93870670  0.13051047  0.38559813
   0.18507596  0.11937839  0.38767495
   0.44686109  0.12040551  0.38553495
   0.83042177  0.38866070  0.38435907
   0.06494039  0.37545844  0.38788873
   0.31181187  0.36534095  0.38716420
   0.57993306  0.37977872  0.38398357
   0.95190148  0.63162048  0.38813076
   0.19123549  0.62237980  0.38681628
   0.43521655  0.62361872  0.38746251
   0.70415428  0.61707566  0.38614959
   0.07285331  0.87471917  0.38619453
   0.31522792  0.87077010  0.38687901
   0.57133279  0.86655458  0.38683430
   0.83211402  0.87047859  0.38701048
   0.55874549  0.21748101  0.43270165
   0.80821254  0.21789209  0.43329115
   0.06227480  0.22113059  0.43358924
   0.30169785  0.20390980  0.43281732
   0.68615199  0.46537256  0.42886878
   0.94497274  0.45981904  0.43353362
   0.18502862  0.46983632  0.43298639
   0.42885782  0.46253260  0.43136471
   0.82510047  0.70561877  0.43236797
   0.07362054  0.71016794  0.43227676
   0.31198544  0.72664629  0.43186745
   0.57724480  0.70598771  0.43433445
   0.93585868  0.94915701  0.43196310
   0.18111161  0.97259747  0.43474822
   0.43049483  0.96450120  0.43149818
   0.68800202  0.97353007  0.43113336
   0.56249979  0.04166674  0.47785292
   0.81250035  0.04166674  0.47785292
   0.06249965  0.04166674  0.47785292
   0.31250021  0.04166674  0.47785292
   0.68750007  0.29166719  0.47785292
   0.93749964  0.29166719  0.47785292
   0.18749993  0.29166719  0.47785292
   0.43750049  0.29166719  0.47785292
   0.81250035  0.54166650  0.47785292
   0.06249965  0.54166650  0.47785292
   0.31250021  0.54166650  0.47785292
   0.56249979  0.54166650  0.47785292
   0.93749964  0.79166695  0.47785292
   0.18749993  0.79166695  0.47785292
   0.43750049  0.79166695  0.47785292
   0.68750007  0.79166695  0.47785292
   0.68750007  0.12500022  0.52389845
   0.93749964  0.12500022  0.52389845
   0.18749993  0.12500022  0.52389845
   0.43750049  0.12500022  0.52389845
   0.81250035  0.37499953  0.52389845
   0.06249965  0.37499953  0.52389845
   0.31250021  0.37499953  0.52389845
   0.56249979  0.37499953  0.52389845
   0.93749964  0.62499998  0.52389845
   0.18749993  0.62499998  0.52389845
   0.43750049  0.62499998  0.52389845
   0.68750007  0.62499998  0.52389845
   0.06249965  0.87500043  0.52389845
   0.31250021  0.87500043  0.52389845
   0.56249979  0.87500043  0.52389845
   0.81250035  0.87500043  0.52389845
   0.54865809  0.20076466  0.57076261
   0.79860935  0.20386994  0.57624163
   0.06167325  0.21326890  0.56972820
   0.30189015  0.19956901  0.57300271
   0.67350256  0.44984389  0.56900746
   0.91487820  0.46303933  0.56977270
   0.16800854  0.45826014  0.56792856
   0.42016978  0.44830890  0.57009303
   0.79444284  0.70858512  0.57053793
   0.04550916  0.71721203  0.56985055
   0.29332242  0.71571690  0.56949240
   0.54436831  0.70847581  0.57058465
   0.92872778  0.96297076  0.56977270
   0.17679027  0.96159520  0.56925438
   0.43401541  0.96404457  0.56809540
   0.68114330  0.95287377  0.57547194
   0.52851091  0.03885981  0.61619640
   0.81050042  0.04523889  0.62053201
   0.03925791  0.04414914  0.61574927
   0.27915037  0.04738765  0.61463033
   0.66508473  0.29477133  0.61999144
   0.92456916  0.29016978  0.61561357
   0.17829416  0.29532474  0.61885916
   0.42799197  0.30268882  0.61644110
   0.78567393  0.56066939  0.61884359
   0.04170851  0.54981287  0.61557798
   0.29714772  0.53903721  0.61340461
   0.54196110  0.57278076  0.61485056
   0.91238914  0.79469479  0.61699723
   0.16136086  0.79798113  0.61459919
   0.41383766  0.79675587  0.61652340
   0.65852777  0.81113215  0.62331489
   0.81827725  0.36437190  0.68357739
   0.85859430  0.82687376  0.19864713
   0.14380333  0.96520151  0.69552089
   0.49133084  0.30193499  0.69181705
   0.72400463  0.30899161  0.77677405
   0.30259525  0.34564686  0.73150710
   0.01797862  0.58392196  0.20599453
   0.57761264  0.69813855  0.82590500
   0.63548031  0.57900043  0.70176737
   0.44805730  0.85228989  0.69380578
   0.81567676  0.79781032  0.79705730
   0.90369222  0.98676992  0.74639142
   0.78922804  0.05090970  0.27821076
   0.36022822  0.96065689  0.74431816
   0.88220782  0.29571874  0.82679259
   0.60323989  0.98968162  0.77193569
   0.30537326  0.97771827  0.19017234
   0.98932217  0.08631464  0.19434511
   0.07905722  0.35531911  0.68666059
   0.27359633  0.15054389  0.29003814
   0.13143199  0.48827896  0.80976159
   0.57698347  0.79506715  0.21412963
   0.99247985  0.63874770  0.71529918
   0.85468517  0.82498577  0.68274987
   0.63207412  0.41041245  0.17683584
   0.70589090  0.68409818  0.30258493
   0.97013058  0.86094299  0.30623716
   0.19663075  0.87344153  0.28318392
   0.24310536  0.72026834  0.22552812
   0.26624355  0.25904754  0.78969634
   0.44917166  0.20076353  0.83316030
   0.56838221  0.41903139  0.32768384
   0.71146170  0.10593471  0.71310357
   0.44509784  0.82508711  0.31613253
   0.90699782  0.54012468  0.76669470
   0.95972170  0.57025168  0.32109635
   0.03101068  0.14624296  0.32382807
   0.29091127  0.47153984  0.32956313
   0.27300464  0.62098715  0.68251851
   0.99405178  0.22945460  0.25467123
   0.41709297  0.43589463  0.26157306
   0.54189503  0.05718516  0.24602738
   0.37264886  0.72895902  0.78250221
   0.56542177  0.52967696  0.76203209
   0.22913053  0.37896796  0.20513675
   0.08547217  0.82581475  0.81832380
   0.13187774  0.02540019  0.77447388
   0.64448688  0.50537450  0.23714661
   0.88231827  0.48095474  0.25810435
   0.60883633  0.09784641  0.32179863
   0.80247212  0.36372625  0.66194607
   0.90859244  0.36115731  0.68529473
   0.76498634  0.83920377  0.20340740
   0.89658006  0.93169594  0.20377979
   0.94594805  0.38073638  0.82574706
   0.15598532  0.96003743  0.67400747
   0.49790456  0.24959734  0.67326447
   0.53536470  0.40019248  0.68716333
   0.64733391  0.38087303  0.77654714
   0.67188724  0.21696745  0.77136177
   0.67350059  0.72250250  0.82288631
   0.26021517  0.42544008  0.72136769
   0.75190201  0.08321506  0.29714640
   0.96335864  0.67137759  0.20084786
   0.88967992  0.80669458  0.81055130
   0.59102634  0.58779017  0.82793155
   0.61761115  0.67926775  0.69415948
   0.40534390  0.75172081  0.68730348
   0.43184488  0.91500009  0.67689046
   0.25411875  0.04317212  0.28372470
   0.83291083  0.69791991  0.78644852
   0.00619504  0.59663116  0.69688897
   0.83004802  0.04524117  0.74053424
   0.86324895  0.92325464  0.76155826
   0.36178635  0.31176097  0.71631356
   0.71452865  0.04970607  0.26376511
   0.26715772  0.97870781  0.74840462
   0.35427282  0.91189026  0.72475788
   0.97275770  0.54013493  0.22284289
   0.83932973  0.29103634  0.80674958
   0.51300952  0.99738503  0.76487281
   0.30796586  0.86938543  0.19692401
   0.22644917  0.00240269  0.20240392
   0.01108144  0.16279989  0.20888019
   0.96933771  0.14333013  0.17666589
   0.11429752  0.26495406  0.69622384
   0.08186579  0.33236033  0.66405270
   0.60705829  0.93572130  0.79101771
   0.33936114  0.19337440  0.27824502
   0.18423871  0.40368606  0.80354848
   0.08877283  0.53453359  0.79382729
   0.70668476  0.54079197  0.69111187
   0.60742218  0.69545345  0.22414624
   0.56219309  0.74955725  0.19382524
   0.92179313  0.70848036  0.71170434
   0.81176073  0.81126538  0.66322072
   0.56507957  0.33361861  0.16924797
   0.64007678  0.77063373  0.30337886
   0.71459867  0.38346588  0.16803383
   0.79327424  0.89902961  0.69147224
   0.64445236  0.60223706  0.30636729
   0.98737945  0.92707617  0.32270535
   0.89351903  0.89626025  0.29626059
   0.10478308  0.87072455  0.28992313
   0.31789547  0.66446673  0.23089769
   0.27343066  0.29236067  0.76836532
   0.19901134  0.82801475  0.26354421
   0.21325341  0.16295361  0.78465110
   0.40856666  0.12520861  0.84605139
   0.38767986  0.18787782  0.81630616
   0.48460525  0.45630155  0.32169497
   0.71690824  0.21610316  0.70545341
   0.57016913  0.32652555  0.31658856
   0.62491561  0.08381630  0.71863597
   0.27352434  0.31675423  0.19231434
   0.35801725  0.83556899  0.30554889
   0.42599007  0.84748906  0.33751293
   0.85796020  0.44422433  0.76307317
   0.86568871  0.57906306  0.32282792
   0.12584838  0.15399534  0.32000366
   0.97894781  0.67745947  0.31895546
   0.94893709  0.55400107  0.74657384
   0.00681829  0.24188596  0.33477231
   0.28432374  0.52613214  0.31083259
   0.27736937  0.36607656  0.32378714
   0.17593823  0.65941652  0.21544789
   0.08416255  0.20752180  0.26100669
   0.36715202  0.41236535  0.24289635
   0.94169377  0.15801614  0.26510183
   0.19536749  0.68311775  0.68628687
   0.50712019  0.44158934  0.25275013
   0.54812261  0.97288556  0.23134504
   0.51227976  0.14228137  0.23531939
   0.05274853  0.93727451  0.70204988
   0.37436083  0.80757139  0.76828079
   0.59237540  0.53433545  0.74150858
   0.45133824  0.70715717  0.79407643
   0.47650594  0.56890572  0.76199205
   0.17575776  0.44268934  0.19207899
   0.27738515  0.57834567  0.66289817
   0.07138689  0.87230509  0.83711545
   0.12836702  0.73569566  0.82230794
   0.04563538  0.02162079  0.76454581
   0.13392303  0.93764345  0.78763420
   0.64837825  0.44904793  0.21784348
   0.73040183  0.47814211  0.24772180
   0.87437083  0.54865366  0.27573152
   0.92483345  0.38312655  0.26526733
   0.61604119  0.07661620  0.34354073
   0.54141477  0.03239987  0.31319393
 
 position of ions in cartesian coordinates  (Angst):
   7.10376000  1.18262000 17.37323000
   9.51884000  1.14612000 17.33392000
   1.87674000  1.04836000 17.42728000
   4.53134000  1.05738000 17.33108000
   8.42079000  3.41315000 17.27822000
   0.65852000  3.29721000 17.43689000
   3.16189000  3.20836000 17.40432000
   5.88074000  3.33515000 17.26134000
   9.65264000  5.54678000 17.44777000
   1.93920000  5.46563000 17.38868000
   4.41326000  5.47651000 17.41773000
   7.14039000  5.41905000 17.35871000
   0.73876000  7.68163000 17.36073000
   3.19653000  7.64695000 17.39150000
   5.79353000  7.60993000 17.38949000
   8.43795000  7.64439000 17.39741000
[...]
      3.16887      0.36591     21.48108         0.134624     -0.004374      0.375485
      6.97151      2.56137     21.48108        -0.076775      0.147048      0.108366
      9.50660      2.56137     21.48108        -0.111977     -0.004342      0.384048
      1.90132      2.56137     21.48108         0.063163      0.099543      0.298312
      4.43642      2.56137     21.48108        -0.104839      0.065822      0.047140
      8.23906      4.75682     21.48108        -0.149084     -0.094892     -0.037700
      0.63377      4.75682     21.48108         0.026268      0.093283      0.409089
      3.16887      4.75682     21.48108         0.039947      0.095306      0.064215
      5.70396      4.75682     21.48108        -0.019178     -0.248554      0.004731
      9.50660      6.95228     21.48108         0.101221     -0.047948      0.175705
      1.90132      6.95228     21.48108         0.039303     -0.022311      0.266512
      4.43642      6.95228     21.48108         0.075227      0.015125      0.003192
      6.97151      6.95228     21.48108         0.266041      0.167207      0.175014
      6.97151      1.09773     23.55098         0.031856     -0.011792      0.507975
      9.50660      1.09773     23.55098        -0.136260      0.123596      0.194604
      1.90132      1.09773     23.55098         0.031233      0.117828      0.035644
      4.43642      1.09773     23.55098        -0.128011      0.196457     -0.128351
      8.23906      3.29318     23.55098        -0.137709     -0.211695      0.062134
      0.63377      3.29318     23.55098        -0.317510     -0.042161     -0.302792
      3.16887      3.29318     23.55098        -0.142564     -0.107110      0.021580
      5.70396      3.29318     23.55098        -0.205215     -0.101397     -0.065696
      9.50660      5.48864     23.55098        -0.123347      0.031104      0.006946
      1.90132      5.48864     23.55098        -0.136229      0.079343     -0.154219
      4.43642      5.48864     23.55098        -0.124071     -0.044534      0.119274
      6.97151      5.48864     23.55098        -0.132350      0.012355      0.114314
      0.63377      7.68410     23.55098        -0.101239      0.031952     -0.098340
      3.16887      7.68410     23.55098        -0.073955      0.034908     -0.146950
      5.70396      7.68410     23.55098         0.161306      0.008797      0.186694
      8.23906      7.68410     23.55098        -0.124765      0.044860      0.214504
      5.56360      1.76308     25.65768         0.508273      0.463585      0.070904
      8.09820      1.79035     25.90398        -0.166005      0.038909     -1.200794
      0.62539      1.87289     25.61118        -0.667451     -0.139007      0.255462
      3.06128      1.75258     25.75838         0.170942      0.814759     -0.861636
      6.82957      3.95045     25.57878        -0.108323      0.269303      0.679254
      9.27721      4.06633     25.61318         0.439809     -0.182257      0.375959
      1.70367      4.02436     25.53028         0.353228      0.304535      0.792892
      4.26068      3.93697     25.62758         0.358486      0.487636     -0.139896
      8.05595      6.22267     25.64758         0.079015      0.004948      0.143428
      0.46148      6.29843     25.61668        -0.050540     -0.454378      0.039433
      2.97440      6.28530     25.60058         0.394957     -0.308778      0.182544
      5.52010      6.22171     25.64968         0.238744      0.237473     -0.367827
      9.41765      8.45664     25.61318        -0.235554     -0.044315      0.121009
      1.79272      8.44456     25.58988        -0.076716     -0.151642     -0.070359
      4.40108      8.46607     25.53778        -0.435576     -0.694328      0.431087
      6.90705      8.36797     25.86938        -0.067898      0.188875     -0.472043
      5.35930      0.34126     27.70008         0.296886      0.582427      0.160684
      8.21878      0.39728     27.89498        -1.132714     -0.061776     -0.049420
      0.39809      0.38771     27.67998         0.637350      0.071885     -0.032858
      2.83069      0.41615     27.62968         0.714291     -0.524033      0.707131
      6.74421      2.58863     27.87068         0.282144      0.096694     -0.629809
      9.37548      2.54822     27.67388         0.315744      0.788632      0.326726
      1.80797      2.59349     27.81978        -0.437326      0.249563     -0.521660
      4.34000      2.65816     27.71108        -0.218106     -0.192292      0.081518
      7.96703      4.92370     27.81908         0.100903     -0.579416     -0.495215
      0.42294      4.82836     27.67228         0.061011     -0.327393     -0.227851
      3.01319      4.73373     27.57458        -0.341944      0.368799     -0.077990
      5.49569      5.03006     27.63958         0.204000     -1.376662      0.395881
      9.25197      6.97887     27.73608         0.149710      0.041096     -0.338120
      1.63626      7.00773     27.62828         0.253243     -0.169024      0.142453
      4.19647      6.99697     27.71478        -0.470481      0.283152     -0.258796
      6.67772      7.12322     28.02008         0.382664     -0.267492     -0.574448
      8.29764      3.19985     30.72908        -3.815679      0.357147     -1.120702
      8.70647      7.26146      8.92985        -0.122603      1.946928      0.578635
      1.45822      8.47623     31.26598        -0.533235     -0.103560      0.272444
      4.98228      2.65154     31.09948         0.725152      1.069362     -0.530480
      7.34168      2.71351     34.91858        -1.738843     -0.742138     -0.608559
      3.06843      3.03541     32.88368        -0.313094     -0.535168      0.562044
      0.18231      5.12790      9.26014         0.402665     -0.174560     -0.694349
      5.85721      6.13093     37.12718         1.931734     -1.046443     -0.003735
      6.44401      5.08468     31.54678        -1.938793      0.575619      0.563223
      4.54347      7.48466     31.18888        -0.118664     -2.173932     -0.729267
      8.27127      7.00623     35.83038         0.098780     -1.206268     -0.511623
      9.16378      8.66564     33.55278         0.931588     -1.129121      0.418712
      8.00307      0.44708     12.50650        -0.115914     -0.099222     -0.967574
      3.65285      8.43632     33.45958        -0.686579     -0.233222     -0.770487
      8.94592      2.59695     37.16708         0.315065      0.554548     -0.768847
      6.11708      8.69121     34.70108         0.473740      0.163175      0.261755
      3.09660      8.58615      8.54888        -1.272795     -0.885924      1.320508
     10.03210      0.75800      8.73646         0.186995      0.283706     -0.147629
      0.80167      3.12035     30.86768         0.028495     -0.449780     -2.343119
      2.77437      1.32205     13.03818        -1.664499     -0.688575      0.925035
      1.33277      4.28798     36.40148        -0.362993      0.875727      2.715079
      5.85083      6.98214      9.62584         0.475454     -2.890861     -1.388426
     10.06412      5.60937     32.15508         0.393503      0.779080      2.147824
      8.66683      7.24488     30.69188        -1.267162      0.766137     -0.631884
      6.40947      3.60417      7.94936        -1.965558     -1.294234     -0.492395
      7.15800      6.00763     13.60220        -1.519315      1.512762     -0.100350
      9.83749      7.56065     13.76638         0.890642     -1.003958      0.329585
      1.99391      7.67041     12.73006         1.082648     -0.119362     -0.540991
      2.46518      6.32527     10.13824        -0.937829      1.660517     -0.404819
      2.69981      2.27491     35.49948        -0.538614     -0.927528     -1.930490
      4.55477      1.76307     37.45333        -0.957857     -1.009288     -0.154654
      5.76361      3.67986     14.73048         0.791638      0.382845      0.168476
      7.21449      0.93030     32.05638         1.904570      2.042124     -1.609572
      4.51346      7.24577     14.21121        -1.259008      0.437514      0.124956
      9.19730      4.74328     34.46548         0.173949     -0.978981     -1.439072
      9.73194      5.00785     14.43435         0.041863     -0.668796      0.165786
      0.31446      1.28428     14.55715        -0.053715      1.246060      0.613925
      2.94995      4.14098     14.81496         0.099384     -0.187985     -0.521430
      2.76837      5.45340     30.68148         0.634624      0.301152      1.031032
     10.08006      2.01503     11.44832         1.699284      0.178878     -0.780012
      4.22948      3.82795     11.75858        -0.547271     -0.759345     -1.935145
      5.49502      0.50219     11.05975         0.726631     -1.539134      0.142888
      3.77880      6.40159     35.17608        -1.039934     -2.339843      1.229474
      5.73359      4.65153     34.25588         0.049578     -0.113986     -0.084180
      2.32347      3.32803      9.22158        -1.401470      1.832319      1.251790
      0.86672      7.25216     36.78638        -1.302117      1.788676     -0.732725
      1.33729      0.22306     34.81518         0.055613     -0.457877     -0.570210
      6.53534      4.43811     10.66053         0.483842     -0.898556     -1.058266
      8.94704      4.22366     11.60265        -0.194245      0.239969      1.345706
      6.17383      0.85927     14.46592         0.275226      0.327391      0.124492
      8.13737      3.19418     29.75668         0.074947     -0.127930      0.600961
      9.21347      3.17162     30.80628         3.378197     -0.196645      0.662441
      7.75725      7.36974      9.14384         0.393579     -0.403567      0.018094
      9.09166      8.18199      9.16058        -0.431292     -1.766004     -0.773794
      9.59227      3.34356     37.12008        -0.433292     -0.698336     -0.160056
      1.58175      8.43088     30.29888        -0.798832     -0.124533      0.597440
      5.04894      2.19192     30.26548        -0.087118     -0.571938     -0.467439
      5.42880      3.51442     30.89028        -0.489451     -0.475315      0.780473
      6.56421      3.34476     34.90838         0.898037      0.230648      0.080733
      6.81319      1.90537     34.67528         1.105562      0.118665      0.504816
      6.82955      6.34489     36.99148        -1.336888      0.451787     -0.239043
      2.63868      3.73614     32.42788        -0.805441      1.230692     -0.289640
      7.62457      0.73078     13.35772        -0.460725     -0.003946     -0.107046
      9.76882      5.89592      9.02878        -0.220434      0.241814      0.033925
      9.02169      7.08425     36.43698         0.192924      0.003118     -0.245686
      5.99323      5.16187     37.21828        -0.758872      0.576617      0.061930
      6.26281      5.96521     31.20478        -0.128878      0.260477      0.174199
      4.11034      6.60148     30.89658         0.350805      1.410359      0.736806
      4.37907      8.03537     30.42848        -0.058882      0.537789     -0.445772
      2.57686      0.37913     12.75437         0.266462      0.520463      0.212604
      8.44603      6.12901     35.35348        -0.125709      1.059575      0.508697
      0.06282      5.23951     31.32748         0.455207     -1.470377     -2.246738
      8.41700      0.39730     33.28948        -1.036138      1.106137     -0.747989
      8.75367      8.10786     34.23458         0.101684     -0.349511      0.432389
      3.66865      2.73783     32.20068         0.748955     -0.484132     -0.123268
      7.24559      0.43651     11.85712         0.549635      0.100789      0.969918
      2.70908      8.59484     33.64328        -0.043605      0.469402      0.643839
      3.59246      8.00806     32.58028         0.670435      0.319150      0.314584
      9.86413      4.74337     10.01753        -0.067801     -0.143942      0.610226
      8.51112      2.55583     36.26608         0.233458      0.194379      0.973847
      5.20211      8.75886     34.38358        -0.091843     -0.332073      0.417999
      3.12289      7.63479      8.85239         0.324642      0.935673     -0.338454
      2.29628      0.02110      9.09873         0.937354      0.208830     -0.976750
      0.11237      1.42968      9.38986        -0.058199      0.246693      0.606549
      9.82945      1.25870      7.94172         0.027675     -0.167742     -0.071116
      1.15902      2.32678     31.29758         0.070295     -0.067117      0.034495
      0.83015      2.91873     29.85138         0.143683      0.277830      2.258624
      6.15580      8.21734     35.55888        -0.279541      0.414087     -0.862129
      3.44125      1.69818     12.50804         1.372143      0.664392     -1.011971
      1.86825      3.54510     36.12218         0.697179     -0.985915     -0.718938
      0.90019      4.69418     35.68518        -0.841330      0.335693     -1.761583
      7.16605      4.74914     31.06778         2.001641     -0.832094     -0.781255
      6.15949      6.10735     10.07612        -0.357185      1.366590     -0.017324
      5.70085      6.58248      8.71309         0.040911      1.182818      1.460484
      9.34733      6.22175     31.99348        -0.389749      0.449976      0.017614
      8.23156      7.12439     29.81398         0.465349     -0.238553      0.368930
      5.73012      2.92978      7.60826         1.729403      1.451205      0.706363
      6.49062      6.76757     13.63789         1.350898     -1.131354     -0.025601
      7.24630      3.36753      7.55368         0.227996     -0.173245     -0.202907
      8.04410      7.89512     31.08398         0.458375      0.163606      0.386955
      6.53499      5.28874     13.77223         0.155483     -0.541881      0.205253
     10.01240      8.14142     14.50668        -0.190415      0.779053      0.346246
      9.06062      7.87080     13.31790        -1.071033      0.638503     -0.555409
      1.06254      7.64655     13.03301        -0.526398     -0.134736      0.195487
      3.22358      5.83523     10.37962         1.005987     -1.195063      0.343963
      2.77269      2.56746     34.54058         0.589129      0.113238      1.157701
      2.01805      7.27148     11.84719         0.063835     -0.219605     -0.150845
      2.16247      1.43103     35.27268         0.250575      0.895645      0.829313
      4.14302      1.09956     38.03283         0.591687      0.300805      0.308164
      3.93122      1.64991     36.69568         0.528451      0.882775     -0.134452
      4.91408      4.00716     14.46126        -1.258595      0.716696      0.269368
      7.26972      1.89778     31.71248        -0.255482     -2.293546      0.811735
      5.78173      2.86749     14.23171         0.526878     -1.171497     -0.033647
      6.33688      0.73606     32.30508        -1.672883     -0.038745      0.557461
      2.77364      2.78168      8.64517         1.535223     -2.056710     -1.782154
      3.63043      7.33782     13.73544         1.087362     -0.086921      0.740406
      4.31970      7.44250     15.17233         0.097272     -0.330813     -1.036725
      8.70004      3.90110     34.30268         0.065843      0.673180      0.757535
      8.77841      5.08523     14.51219        -0.556534     -0.158719      0.157716
      1.27615      1.35236     14.38523        -0.394464      0.146383     -0.016299
      9.92690      5.94933     14.33811         0.310529      0.370658     -0.206125
      9.62258      4.86514     33.56098        -0.406800      0.334741      1.193115
      0.06914      2.12420     15.04913         0.461939     -1.169449     -0.721877
      2.88315      4.62040     13.97296        -0.123218     -0.001695      0.189722
      2.81263      3.21482     14.55531        -0.042877      0.132401     -0.008631
      1.78408      5.79088      9.68510        -0.121608     -0.356204      0.423007
      0.85344      1.82242     11.73312        -0.269863      0.268532      0.146873
      3.72306      3.62132     10.91900         0.179555      0.339311      1.439477
      9.54913      1.38767     11.91721        -1.159697     -1.168373      0.784899
      1.98110      5.99902     30.85088         0.142179     -0.217923     -0.396278
      5.14239      3.87796     11.36196        -0.164824      0.431242      0.660910
      5.55817      8.54371     10.39973        -0.281430      0.539608      0.610604
      5.19471      1.24949     10.57839        -0.419552      0.987806     -0.633458
      0.53489      8.23098     31.55948         1.207896      0.297841     -0.916977
      3.79616      7.09195     34.53678         0.847793      1.371141     -0.768768
      6.00691      4.69244     33.33328         0.189241      0.080942     -0.121927
      4.57674      6.21013     35.69638         0.203795      0.904731     -0.078147
      4.83195      4.99603     34.25408        -0.356082      0.082082      0.290091
      1.78225      3.88762      8.63459        -0.108813     -0.039402      0.663983
      2.81279      5.07893     29.79948        -0.636533      0.021675     -0.298702
      0.72389      7.66043     37.63113        -0.002589      0.470584      0.590102
      1.30169      6.46075     36.96548         1.439038     -2.571679      0.369392
      0.46276      0.18987     34.36888        -0.072085      0.240631     -0.002162
      1.35803      8.23422     35.40678        -0.100469      0.013048      0.348877
      6.57480      3.94346      9.79279         0.034407      0.694189      0.977253
      7.40655      4.19896     11.13592        -0.309414      0.469601     -0.433586
      8.86645      4.81818     12.39505         0.318078     -0.607172     -0.759026
      9.37816      3.36455     11.92465        -0.222812      0.991222     -0.663223
      6.24689      0.67283     15.44330        -0.386542     -0.083020     -0.897148
      5.49015      0.28453     14.07911        -0.007206     -0.264396      0.460995
 -----------------------------------------------------------------------------------
    total drift:                                0.010088      0.000425     -0.061833


--------------------------------------------------------------------------------------------------------



  FREE ENERGIE OF THE ION-ELECTRON SYSTEM (eV)
  ---------------------------------------------------
  free  energy   TOTEN  =     -1806.50494005 eV

  energy  without entropy=    -1806.25895440  energy(sigma->0) =    -1806.38194722
 


--------------------------------------------------------------------------------------------------------


    POTLOK:  cpu time     12.1811: real time     12.2061


--------------------------------------------------------------------------------------------------------


 writing wavefunctions
     LOOP+:  cpu time   3162.9395: real time   3169.2440
 vacuum level on the upper side and lower side of the slab         7.222         2.463
    4ORBIT:  cpu time      0.0000: real time      0.0000

 total amount of memory used by VASP MPI-rank0 10651051. kBytes
=======================================================================

   base      :      30000. kBytes
   nonlr-proj:     190176. kBytes
   fftplans  :     468582. kBytes
   grid      :    1221211. kBytes
   one-center:       3825. kBytes
   wavefun   :    8737257. kBytes
 
  
  
 General timing and accounting informations for this job:
 ========================================================
  
                  Total CPU time used (sec):     3277.023
                            User time (sec):     3189.587
                          System time (sec):       87.436
                         Elapsed time (sec):     3283.863
  
                   Maximum memory used (kb):    11849728.
                   Average memory used (kb):          N/A
  
                          Minor page faults:     20108187
                          Major page faults:           44
                 Voluntary context switches:        62343
