246
Lattice="10.140377178 0.0 0.0 0.0 8.78182424 0.0 0.0 0.0 30.131127158" Properties=species:S:1:pos:R:3:initial_charges:R:1:forces:R:3 NELECT0=1456.0 NELECT=1456.0 U_vs_SHE=0.6228921370165006 stress="0.01092534354374721 0.0015614258550039628 -0.00035815651817055897 0.0015614258550039628 0.011442514989917897 0.002682613105322876 -0.00035815651817055897 0.002682613105322876 0.010340021059431003" free_energy=-1809.82660861 energy=-1809.72430218 pbc="T T T"
Cu       7.10376000       1.18262000       9.92275000      -0.05602200      -0.23747600      -0.21385300       0.30029400
Cu       9.51884000       1.14612000       9.88344000       0.02454600       0.28917000      -0.18538200       0.37902600
Cu       1.87674000       1.04836000       9.97680000      -0.02495400       0.27182200       0.20541900      -0.13608900
Cu       4.53134000       1.05738000       9.88060000      -0.01548400      -0.12937200       0.12090400       0.29567700
Cu       8.42079000       3.41315000       9.82774000       0.01585200      -0.30382500      -0.63869800       0.38165000
Cu       0.65852000       3.29721000       9.98641000      -0.02321500       0.37282700      -0.02375100      -0.10727800
Cu       3.16189000       3.20836000       9.95384000       0.03680700       0.19660300       0.14302200       0.03184600
Cu       5.88074000       3.33515000       9.81086000       0.11282200      -0.70643100      -0.22219700      -0.39935600
Cu       9.65264000       5.54678000       9.99729000       0.03121800      -0.14352400      -0.34965500      -0.53002100
Cu       1.93920000       5.46563000       9.93820000       0.03306100       0.28825600       0.01150000      -0.18823300
Cu       4.41326000       5.47651000       9.96725000       0.02637800       0.51809500       0.09139400       0.07909200
Cu       7.14039000       5.41905000       9.90823000       0.00539000      -0.36053600       1.09290200      -0.20764700
Cu       0.73876000       7.68163000       9.91025000      -0.03534800      -0.02013500       0.12551700       0.25316200
Cu       3.19653000       7.64695000       9.94102000      -0.06152300       0.08677900       0.43351300      -0.20418600
Cu       5.79353000       7.60993000       9.93901000      -0.02545900       0.03161200       0.16224200       0.28442000
Cu       8.43795000       7.64439000       9.94693000      -0.02127000      -0.89322200       0.30239100      -0.19819500
Cu       5.66589000       1.90988000      12.00090000       0.01352300      -0.08285600      -0.01583000      -0.52614700
Cu       8.19558000       1.91349000      12.02740000       0.03347000       0.44132300      -0.06275300      -0.50315600
Cu       0.63149000       1.94193000      12.04080000       0.02651300      -0.37108400      -0.65402500      -0.45948500
Cu       3.05933000       1.79070000      12.00610000       0.02437900       0.84660200       0.73502000      -0.34725600
Cu       6.95784000       4.08682000      11.82860000       0.03160300       0.20599800      -0.57671300       0.82688700
Cu       9.58238000       4.03805000      12.03830000       0.02191200      -0.63119800       0.20367500      -0.38923600
Cu       1.87626000       4.12602000      12.01370000       0.02776000       0.57920800      -0.45965600      -0.27839200
Cu       4.34878000       4.06188000      11.94080000       0.01961300       0.42999400      -0.07645600       0.04359400
Cu       8.36683000       6.19662000      11.98590000       0.02232500      -0.56710600       0.05585000      -0.04085800
Cu       0.74654000       6.23657000      11.98180000       0.03408500      -0.47074200       0.36106100       0.07000700
Cu       3.16365000       6.38128000      11.96340000       0.02722500       0.36402200      -0.76235400       0.20891100
Cu       5.85348000       6.19986000      12.07430000       0.01982800      -0.70021100       0.45642200      -0.90783000
Cu       9.48996000       8.33533000      11.96770000       0.02666100       0.29385500       0.92171900       0.04539100
Cu       1.83654000       8.54118000      12.09290000       0.01681700       0.01765200      -0.74876400      -0.80460100
Cu       4.36538000       8.47008000      11.94680000       0.01979200       0.71323400      -0.00665700       0.07762200
Cu       6.97660000       8.54937000      11.93040000       0.02627800      -0.07780000      -0.59799100       0.04980600
Cu       5.70396000       0.36591000      14.03060000       0.03523000      -0.01414800      -0.01567100      -0.07971000
Cu       8.23906000       0.36591000      14.03060000       0.00785700       0.02126700      -0.03269500       0.01353400
Cu       0.63377000       0.36591000      14.03060000      -0.01669500      -0.30006400       0.08701000       0.39751800
Cu       3.16887000       0.36591000      14.03060000       0.00745000       0.13541200      -0.00536400       0.36987700
Cu       6.97151000       2.56137000      14.03060000       0.03021900      -0.07497500       0.14837600       0.10831100
Cu       9.50660000       2.56137000      14.03060000      -0.02531200      -0.11388400      -0.00448000       0.38117900
Cu       1.90132000       2.56137000      14.03060000       0.01462900       0.06478300       0.09850800       0.29711600
Cu       4.43642000       2.56137000      14.03060000      -0.00126100      -0.10645600       0.06372600       0.05091100
Cu       8.23906000       4.75682000      14.03060000       0.03571800      -0.14954600      -0.09756100      -0.03929700
Cu       0.63377000       4.75682000      14.03060000      -0.01620600       0.02492600       0.09119000       0.40588700
Cu       3.16887000       4.75682000      14.03060000       0.00406700       0.03924800       0.09434500       0.06473900
Cu       5.70396000       4.75682000      14.03060000       0.00731000      -0.01734900      -0.24840600       0.00654200
Cu       9.50660000       6.95228000      14.03060000       0.00735600       0.10051500      -0.04823900       0.17722400
Cu       1.90132000       6.95228000      14.03060000       0.00718200       0.04079400      -0.02222300       0.26341900
Cu       4.43642000       6.95228000      14.03060000       0.00504700       0.07356000       0.01529600      -0.00145900
Cu       6.97151000       6.95228000      14.03060000       0.00235300       0.26669400       0.16719900       0.17112600
Cu       6.97151000       1.09773000      16.10050000       0.03549400       0.03132400      -0.01042600       0.50723000
Cu       9.50660000       1.09773000      16.10050000      -0.00321100      -0.13491000       0.12348900       0.19460900
Cu       1.90132000       1.09773000      16.10050000      -0.01772800       0.03144200       0.11773900       0.03417700
Cu       4.43642000       1.09773000      16.10050000       0.00227200      -0.12868900       0.19616800      -0.12906700
Cu       8.23906000       3.29318000      16.10050000      -0.00121200      -0.13724500      -0.21001600       0.06158600
Cu       0.63377000       3.29318000      16.10050000      -0.00618900      -0.31837700      -0.04037500      -0.30438100
Cu       3.16887000       3.29318000      16.10050000      -0.00140300      -0.14257700      -0.10569000       0.01981400
Cu       5.70396000       3.29318000      16.10050000      -0.00831500      -0.20412200      -0.10074700      -0.06894600
Cu       9.50660000       5.48864000      16.10050000       0.00512200      -0.12250600       0.03098600       0.00799000
Cu       1.90132000       5.48864000      16.10050000       0.00155400      -0.13750300       0.08028900      -0.15633700
Cu       4.43642000       5.48864000      16.10050000       0.00597500      -0.12228800      -0.04341700       0.11801700
Cu       6.97151000       5.48864000      16.10050000       0.00974600      -0.13338300       0.01282000       0.11555600
Cu       0.63377000       7.68410000      16.10050000      -0.01963800      -0.10046200       0.03535600      -0.10280300
Cu       3.16887000       7.68410000      16.10050000      -0.00025200      -0.07382700       0.03814500      -0.14959000
Cu       5.70396000       7.68410000      16.10050000       0.03712100       0.16046400       0.01018700       0.18236900
Cu       8.23906000       7.68410000      16.10050000       0.00445200      -0.12526600       0.04702500       0.21173700
Cu       5.56360000       1.76308000      18.20720000       0.00809800       0.50692800       0.46269800       0.06249700
Cu       8.09820000       1.79035000      18.45350000       0.01633300      -0.16720400       0.03951400      -1.20796700
Cu       0.62539000       1.87289000      18.16070000       0.02848800      -0.66554200      -0.14049300       0.25249000
Cu       3.06128000       1.75258000      18.30790000       0.02726800       0.17064300       0.81498800      -0.87075400
Cu       6.82957000       3.95045000      18.12830000       0.01756400      -0.10953000       0.26815100       0.67994400
Cu       9.27721000       4.06633000      18.16270000       0.01187900       0.43983800      -0.18462500       0.37771600
Cu       1.70367000       4.02436000      18.07980000       0.01389800       0.35316800       0.30101100       0.79207200
Cu       4.26068000       3.93697000      18.17710000       0.00765100       0.35812900       0.48405000      -0.14649100
Cu       8.05595000       6.22267000      18.19710000       0.02169500       0.07928200       0.00428300       0.13992100
Cu       0.46148000       6.29843000      18.16620000       0.01624600      -0.05027300      -0.45477200       0.03224300
Cu       2.97440000       6.28530000      18.15010000       0.01347400       0.39371100      -0.30817100       0.17468300
Cu       5.52010000       6.22171000      18.19920000       0.02699100       0.23897200       0.23711000      -0.37060700
Cu       9.41765000       8.45664000      18.16270000       0.00760600      -0.23516400      -0.04657800       0.11742300
Cu       1.79272000       8.44456000      18.13940000       0.02860500      -0.07628600      -0.15583000      -0.07241300
Cu       4.40108000       8.46607000      18.08730000       0.00857800      -0.43442300      -0.69688000       0.43488600
Cu       6.90705000       8.36797000      18.41890000       0.02997900      -0.06847500       0.18766600      -0.47630700
Cu       5.35930000       0.34126000      20.24960000      -0.05057800       0.29515600       0.58232800       0.17105700
Cu       8.21878000       0.39728000      20.44450000       0.01870700      -1.12948200      -0.06223700      -0.05264100
Cu       0.39809000       0.38771000      20.22950000      -0.01886000       0.63533200       0.07364100      -0.03066100
Cu       2.83069000       0.41615000      20.17920000      -0.05623100       0.71529800      -0.52202700       0.71169500
Cu       6.74421000       2.58863000      20.42020000      -0.02468800       0.27980900       0.09641000      -0.61730400
Cu       9.37548000       2.54822000      20.22340000      -0.05634400       0.31640700       0.78623000       0.33184300
Cu       1.80797000       2.59349000      20.36930000      -0.03482400      -0.43726200       0.24883600      -0.51005100
Cu       4.34000000       2.65816000      20.26060000      -0.03638900      -0.21844800      -0.19218800       0.09299900
Cu       7.96703000       4.92370000      20.36860000      -0.02638800       0.10081100      -0.57662900      -0.48447700
Cu       0.42294000       4.82836000      20.22180000      -0.04082600       0.06244000      -0.32709800      -0.22180100
Cu       3.01319000       4.73373000      20.12410000      -0.07524500      -0.34025600       0.36639100      -0.07164700
Cu       5.49569000       5.03006000      20.18910000      -0.04306300       0.20221300      -1.37807600       0.40223300
Cu       9.25197000       6.97887000      20.28560000      -0.00585000       0.15086600       0.04265500      -0.34443300
Cu       1.63626000       7.00773000      20.17780000      -0.03948800       0.25145300      -0.16978500       0.14346800
Cu       4.19647000       6.99697000      20.26430000      -0.01228500      -0.46849000       0.28204500      -0.24716400
Cu       6.67772000       7.12322000      20.56960000      -0.01847200       0.38023600      -0.26873900      -0.56994000
O        8.29764000       3.19985000      23.27860000      -1.28197200      -3.81599400       0.35565800      -1.10249700
O        8.70647000       7.26146000       1.47937000      -1.29633000       0.05454100       1.80095700       0.70531700
O        1.45822000       8.47623000      23.81550000      -1.29815700      -0.53451900      -0.10433300       0.28345100
O        4.98228000       2.65154000      23.64900000      -1.28273200       0.72665900       1.06864500      -0.51131200
O        7.34168000       2.71351000      27.46810000      -1.32064600      -1.71491600      -0.78967700      -0.41681900
O        3.06843000       3.03541000      25.43320000      -1.33842900      -0.31423400      -0.53672500       0.59065600
O        0.18231000       5.12790000       1.80966000      -1.34753100       0.44253500      -0.01243600      -0.37290800
O        5.85721000       6.13093000      29.67670000      -1.26182100       1.63237200      -0.24360700       0.07132200
O        6.44401000       5.08468000      24.09630000      -1.33265000      -1.93740900       0.57330200       0.58499800
O        4.54347000       7.48466000      23.73840000      -1.26994500      -0.12135700      -2.17161700      -0.71907400
O        8.27127000       7.00623000      28.37990000      -1.30697500       0.00623100      -1.26738500      -0.60523800
O        9.16378000       8.66564000      26.10230000      -1.33165900       0.92382900      -1.10519300       0.43838700
O        8.00307000       0.44708000       5.05602000      -1.34644400      -0.09519300      -0.16238000      -0.44140000
O        3.65285000       8.43632000      26.00910000      -1.34145300      -0.67986000      -0.22522100      -0.75843400
O        8.94592000       2.59695000      29.71660000      -1.31248500       0.10485600       0.73345200      -0.74369500
O        6.11708000       8.69121000      27.25060000      -1.33209000       0.49366900       0.19930600       0.30486400
O        3.09660000       8.58615000       1.09840000      -1.24710700      -1.54614800      -1.05539600       1.65055600
O       10.03210000       0.75800000       1.28598000      -1.36857100       0.68984500      -0.52735300       0.66427400
O        0.80167000       3.12035000      23.41720000      -1.20782500       0.02689200      -0.45049500      -2.32746400
O        2.77437000       1.32205000       5.58770000      -1.39468800      -1.65628900      -0.74059000       1.30917300
O        1.33277000       4.28798000      28.95100000      -1.37524700      -0.20407900       0.70270200       2.84244700
O        5.85083000       6.98214000       2.17536000      -1.33111100       0.57785400      -2.53168900      -0.06909900
O       10.06412000       5.60937000      24.70460000      -1.29805000       0.38692600       0.76967300       2.16805600
O        8.66683000       7.24488000      23.24140000      -1.27476200      -1.26853100       0.76617900      -0.61620200
O        6.40947000       3.60417000       0.49888000      -1.32582700      -1.62980300      -0.32627300      -0.01209500
O        7.15800000       6.00763000       6.15172000      -1.27682000      -1.52709100       1.50842700       0.30222600
O        9.83749000       7.56065000       6.31590000      -1.33029500       0.89544000      -1.07464300       0.70504600
O        1.99391000       7.67041000       5.27958000      -1.36873000       0.99832400      -0.08393700      -0.13421400
O        2.46518000       6.32527000       2.68776000      -1.34648700      -0.99760500       1.83861400      -0.05756900
O        2.69981000       2.27491000      28.04900000      -1.34539300      -0.44705900      -0.97595200      -1.83080200
O        4.55477000       1.76307000      30.00285000      -1.34003300      -0.90485100      -0.47611500      -0.19219300
O        5.76361000       3.67986000       7.28000000      -1.30746300       0.76275700       0.31587100       0.56229000
O        7.21449000       0.93030000      24.60590000      -1.31975300       1.90429600       2.04915200      -1.57921600
O        4.51346000       7.24577000       6.76073000      -1.25276900      -1.20409300       0.43870200       0.53768200
O        9.19730000       4.74328000      27.01500000      -1.32088100       0.13795800      -1.03745100      -1.40974200
O        9.73194000       5.00785000       6.98387000      -1.30257800       0.09166800      -0.71520500       0.66042400
O        0.31446000       1.28428000       7.10667000      -1.24845500      -0.11126700       1.24804100       1.07405600
O        2.94995000       4.14098000       7.36448000      -1.29438000       0.06896700      -0.21605700      -0.23223300
O        2.76837000       5.45340000      23.23100000      -1.27581500       0.63493900       0.29850800       1.04508100
O       10.08006000       2.01503000       3.99784000      -1.28400600       1.66856600       0.18096300      -0.35333800
O        4.22948000       3.82795000       4.30810000      -1.33174400      -0.66116800      -0.81078800      -1.51213100
O        5.49502000       0.50219000       3.60927000      -1.31276200       0.65273000      -1.38691900       0.50822500
O        3.77880000       6.40159000      27.72560000      -1.38614600      -0.96349000      -2.38322900       1.30240800
O        5.73359000       4.65153000      26.80540000      -1.31099000       0.06728200      -0.15308400      -0.03124300
O        2.32347000       3.32803000       1.77110000      -1.30951800      -1.49652400       1.79343500       1.76637100
O        0.86672000       7.25216000      29.33590000      -1.35720400      -1.30579300       1.64738900      -0.87564800
O        1.33729000       0.22306000      27.36470000      -1.35475300       0.02255800      -0.38597100      -0.57711300
O        6.53534000       4.43811000       3.21005000      -1.32650300       0.62500200      -1.01172500      -0.35827200
O        8.94704000       4.22366000       4.15217000      -1.29062900      -0.08081400       0.30246000       1.77986400
O        6.17383000       0.85927000       7.01544000      -1.29390700       0.22642300       0.35090500       0.62495600
H        8.13737000       3.19418000      22.30620000       0.52981400       0.07297900      -0.12785800       0.60060500
H        9.21347000       3.17162000      23.35580000       0.69000800       3.37978000      -0.19673100       0.65764800
H        7.75725000       7.36974000       1.69336000       0.63184200       0.19174100      -0.41553200      -0.08764000
H        9.09166000       8.18199000       1.71010000       0.64085500      -0.41053800      -1.45324900      -0.83716900
H        9.59227000       3.34356000      29.66960000       0.63987100      -0.32404000      -0.61710800      -0.19578100
H        1.58175000       8.43088000      22.84840000       0.61651400      -0.79942500      -0.12308600       0.59626800
H        5.04894000       2.19192000      22.81500000       0.60353300      -0.08952000      -0.56913900      -0.46954000
H        5.42880000       3.51442000      23.43980000       0.65311700      -0.49270700      -0.47767300       0.77328500
H        6.56421000       3.34476000      27.45790000       0.65733400       0.86558400       0.30268800      -0.00794100
H        6.81319000       1.90537000      27.22480000       0.65998800       1.10659400       0.08597100       0.44809500
H        6.82955000       6.34489000      29.54100000       0.62530800      -1.11479000       0.52020800      -0.34799700
H        2.63868000       3.73614000      24.97740000       0.65561900      -0.80652200       1.23216300      -0.29291600
H        7.62457000       0.73078000       5.90724000       0.67160100      -0.32195700      -0.02501600      -0.41691200
H        9.76882000       5.89592000       1.57830000       0.69198200      -0.31639700       0.13820500       0.01475400
H        9.02169000       7.08425000      28.98650000       0.65222500       0.18407200       0.00295600      -0.03122100
H        5.99323000       5.16187000      29.76780000       0.63874200      -0.57095200      -0.17591700       0.32499700
H        6.26281000       5.96521000      23.75430000       0.65904500      -0.13047500       0.25994700       0.16921600
H        4.11034000       6.60148000      23.44610000       0.64991400       0.35033200       1.41069300       0.73335800
H        4.37907000       8.03537000      22.97800000       0.59840100      -0.05743100       0.53532000      -0.44766900
H        2.57686000       0.37913000       5.30389000       0.68721800       0.24225000       0.51692100       0.11207000
H        8.44603000       6.12901000      27.90300000       0.65992500      -0.11775800       1.11286400       0.48738000
H        0.06282000       5.23951000      23.87700000       0.64100300       0.45570900      -1.47030300      -2.24842200
H        8.41700000       0.39730000      25.83900000       0.66510300      -1.03896400       1.09655100      -0.76825500
H        8.75367000       8.10786000      26.78410000       0.66646500       0.10196200      -0.37245500       0.43372400
H        3.66865000       2.73783000      24.75020000       0.68673000       0.75329500      -0.48822300      -0.13457700
H        7.24559000       0.43651000       4.40664000       0.67460400       0.39683500       0.10038100       0.68427100
H        2.70908000       8.59484000      26.19280000       0.66566100      -0.04118500       0.46407300       0.64578300
H        3.59246000       8.00806000      25.12980000       0.67378000       0.67378900       0.31833800       0.30706100
H        9.86413000       4.74337000       2.56705000       0.65373500      -0.02713800      -0.09336200       0.33810900
H        8.51112000       2.55583000      28.81560000       0.67469300       0.36671100       0.04880600       0.77218500
H        5.20211000       8.75886000      26.93310000       0.67883500      -0.10836600      -0.34274500       0.40604100
H        3.12289000       7.63479000       1.40191000       0.64690300       0.57820100       0.81801600      -0.48281800
H        2.29628000       0.02110000       1.64825000       0.59367800       0.87877200       0.41239500      -0.99788500
H        0.11237000       1.42968000       1.93938000       0.67236200      -0.08341300       0.14168600       0.25352400
H        9.82945000       1.25870000       0.49124000       0.70319800      -0.53122800       0.49337900      -0.65421600
H        1.15902000       2.32678000      23.84710000       0.66081500       0.06882000      -0.06740500       0.02656600
H        0.83015000       2.91873000      22.40090000       0.51213800       0.14566100       0.27755100       2.25466900
H        6.15580000       8.21734000      28.10840000       0.65577500      -0.28391400       0.40208900      -0.91204600
H        3.44125000       1.69818000       5.05756000       0.67611300       1.38191300       0.74114000      -1.16763900
H        1.86825000       3.54510000      28.67170000       0.69970900       0.55761100      -0.86798600      -0.83483100
H        0.90019000       4.69418000      28.23470000       0.65870500      -0.82257800       0.36306100      -1.65326000
H        7.16605000       4.74914000      23.61730000       0.67267500       1.99967600      -0.83228300      -0.78680500
H        6.15949000       6.10735000       2.62564000       0.65211800      -0.45500100       1.63630200      -0.22668800
H        5.70085000       6.58248000       1.26261000       0.66049600       0.01328000       0.96643200       0.28457100
H        9.34733000       6.22175000      24.54300000       0.67107000      -0.39067800       0.45312600       0.00953600
H        8.23156000       7.12439000      22.36350000       0.55841300       0.46653400      -0.23704000       0.36987500
H        5.73012000       2.92978000       0.15778000       0.67538800       0.76379100       0.59021800       0.49915000
H        6.49062000       6.76757000       6.18741000       0.62658600       1.38905900      -1.14476900      -0.19017800
H        7.24630000       3.36753000       0.10320000       0.65271100       0.91274700      -0.52010600      -0.19207100
H        8.04410000       7.89512000      23.63350000       0.65960400       0.45964600       0.15866300       0.37900000
H        6.53499000       5.28874000       6.32175000       0.64575900       0.18251000      -0.49885100       0.00486200
H       10.01240000       8.14142000       7.05620000       0.65720600      -0.20630000       0.74576100       0.15199300
H        9.06062000       7.87080000       5.86742000       0.70408800      -1.19239600       0.72075400      -0.76125600
H        1.06254000       7.64655000       5.58253000       0.68636600      -0.31670200      -0.12611100       0.00402600
H        3.22358000       5.83523000       2.92914000       0.65482200       1.06767400      -1.18724200       0.13422600
H        2.77269000       2.56746000      27.09010000       0.67157100       0.59156900       0.13215600       1.14388500
H        2.01805000       7.27148000       4.39671000       0.68679500       0.12516900      -0.33189600      -0.45693300
H        2.16247000       1.43103000      27.82220000       0.67399700       0.24114600       0.84467300       0.82286500
H        4.14302000       1.09956000       0.45122000       0.66472200       0.46712200      -0.25738000       0.39976400
H        3.93122000       1.64991000      29.24520000       0.66945200       0.56708800       0.91297500      -0.23080500
H        4.91408000       4.00716000       7.01078000       0.65956100      -1.23850300       0.72223400       0.12590000
H        7.26972000       1.89778000      24.26200000       0.64192900      -0.25424400      -2.29077900       0.79486900
H        5.78173000       2.86749000       6.78123000       0.66575700       0.53598500      -1.15045700      -0.17250400
H        6.33688000       0.73606000      24.85460000       0.68761100      -1.67472100      -0.04278100       0.54263100
H        2.77364000       2.78168000       1.19469000       0.63774100       1.74416200      -1.85851200      -2.06226900
H        3.63043000       7.33782000       6.28496000       0.66233100       0.95613600      -0.06212600       0.53301200
H        4.31970000       7.44250000       7.72185000       0.54731900       0.09060300      -0.33032200      -1.24620100
H        8.70004000       3.90110000      26.85220000       0.65344100       0.09546400       0.71047900       0.71380400
H        8.77841000       5.08523000       7.06171000       0.63296400      -0.60939000      -0.13922200      -0.02452900
H        1.27615000       1.35236000       6.93475000       0.64061000      -0.28322100       0.15520800      -0.23692400
H        9.92690000       5.94933000       6.88763000       0.66692600       0.31705000       0.47776900      -0.34953300
H        9.62258000       4.86514000      26.11050000       0.65720400      -0.39664600       0.34553800       1.16672600
H        0.06914000       2.12420000       7.59865000       0.59634500       0.47104700      -1.15737200      -0.92258000
H        2.88315000       4.62040000       6.52248000       0.65211900      -0.10051500      -0.01229900       0.05842400
H        2.81263000       3.21482000       7.10483000       0.65642900      -0.02555000       0.13292400      -0.16374100
H        1.78408000       5.79088000       2.23462000       0.69223100      -0.20575000      -0.50705700       0.31003800
H        0.85344000       1.82242000       4.28264000       0.62880200      -0.31442900       0.29230000      -0.06476600
H        3.72306000       3.62132000       3.46852000       0.61499200       0.10770200       0.34560200       1.23479500
H        9.54913000       1.38767000       4.46673000       0.68031800      -1.09315600      -1.10935500       0.58424100
H        1.98110000       5.99902000      23.40040000       0.64886900       0.14461700      -0.21800000      -0.40095900
H        5.14239000       3.87796000       3.91148000       0.67831000       0.05736600       0.49626800       0.44134800
H        5.55817000       8.54371000       2.94925000       0.66840200      -0.16454900       0.18234300       0.36876500
H        5.19471000       1.24949000       3.12791000       0.64254400      -0.32006800       1.03340400      -0.74448300
H        0.53489000       8.23098000      24.10900000       0.65970200       1.21208500       0.29715000      -0.92463000
H        3.79616000       7.09195000      27.08630000       0.69253100       0.85583500       1.35996800      -0.75226600
H        6.00691000       4.69244000      25.88280000       0.64499800       0.19454600       0.07836100      -0.13323600
H        4.57674000       6.21013000      28.24590000       0.69179800       0.08441100       0.95945900      -0.22886900
H        4.83195000       4.99603000      26.80360000       0.66888700      -0.36198700       0.11012900       0.28425700
H        1.78225000       3.88762000       1.18411000       0.66699100      -0.05326400      -0.10065200       0.30202000
H        2.81279000       5.07893000      22.34900000       0.60691600      -0.63619900       0.02349300      -0.30044200
H        0.72389000       7.66043000       0.04952000       0.67223100      -0.05552400       0.63800200       0.65110200
H        1.30169000       6.46075000      29.51500000       0.70927400       1.40403000      -2.52731800       0.29397800
H        0.46276000       0.18987000      26.91840000       0.69185500      -0.04603000       0.22803800      -0.01461400
H        1.35803000       8.23422000      27.95630000       0.68274300      -0.07637100      -0.04029800       0.43314300
H        6.57480000       3.94346000       2.34231000       0.66716300      -0.00912700       0.56629300       0.38583200
H        7.40655000       4.19896000       3.68544000       0.65872500      -0.66288200       0.48487000      -0.72853000