246
Lattice="10.140377178 0.0 0.0 0.0 8.78182424 0.0 0.0 0.0 30.131127158" Properties=species:S:1:pos:R:3:initial_charges:R:1:forces:R:3 NELECT0=1456.0 NELECT=1457.0 U_vs_SHE=-0.5672400786248026 stress="0.008813485240440727 0.0015646027831490374 -0.000391623490103545 0.0015646027831490374 0.008394268038491652 0.0024359611476862217 -0.000391623490103545 0.0024359611476862217 0.00725843196625429" free_energy=-1808.04377672 energy=-1809.923865971375 pbc="T T T"
Cu       7.10376000       1.18262000       9.92275000      -0.07288900      -0.24154900      -0.21756500       0.30438500
Cu       9.51884000       1.14612000       9.88344000       0.01029600       0.27915800      -0.18354000       0.41283000
Cu       1.87674000       1.04836000       9.97680000      -0.03982500       0.27702500       0.20644400      -0.12116200
Cu       4.53134000       1.05738000       9.88060000      -0.03301200      -0.12994600       0.11820900       0.30429500
Cu       8.42079000       3.41315000       9.82774000      -0.00070100      -0.30255200      -0.64941800       0.39663100
Cu       0.65852000       3.29721000       9.98641000      -0.03845200       0.37125500      -0.02903300      -0.09366800
Cu       3.16189000       3.20836000       9.95384000       0.02209100       0.19843700       0.12448300       0.07773000
Cu       5.88074000       3.33515000       9.81086000       0.10001200      -0.70421600      -0.23385500      -0.30328700
Cu       9.65264000       5.54678000       9.99729000       0.01976700      -0.14420300      -0.34389800      -0.47924100
Cu       1.93920000       5.46563000       9.93820000       0.01904600       0.28182600       0.01839400      -0.15097700
Cu       4.41326000       5.47651000       9.96725000       0.01110900       0.52362000       0.09801700       0.10635700
Cu       7.14039000       5.41905000       9.90823000      -0.00992500      -0.35947100       1.09587600      -0.17733200
Cu       0.73876000       7.68163000       9.91025000      -0.05280400      -0.01988900       0.12486700       0.25938600
Cu       3.19653000       7.64695000       9.94102000      -0.07882100       0.08952000       0.43349300      -0.21157600
Cu       5.79353000       7.60993000       9.93901000      -0.04244400       0.02562600       0.16506100       0.28298600
Cu       8.43795000       7.64439000       9.94693000      -0.03738700      -0.89347100       0.30319100      -0.18857000
Cu       5.66589000       1.90988000      12.00090000       0.00910500      -0.08463700      -0.02315400      -0.52316500
Cu       8.19558000       1.91349000      12.02740000       0.02853500       0.44300000      -0.06980100      -0.49280800
Cu       0.63149000       1.94193000      12.04080000       0.02206500      -0.37096800      -0.66534900      -0.45443500
Cu       3.05933000       1.79070000      12.00610000       0.01968800       0.84708300       0.72619100      -0.33778500
Cu       6.95784000       4.08682000      11.82860000       0.02697900       0.20925000      -0.58012600       0.83397500
Cu       9.58238000       4.03805000      12.03830000       0.01723900      -0.63475000       0.20477600      -0.38543300
Cu       1.87626000       4.12602000      12.01370000       0.02351100       0.58052900      -0.46003900      -0.28260500
Cu       4.34878000       4.06188000      11.94080000       0.01494700       0.43038300      -0.07666600       0.03945600
Cu       8.36683000       6.19662000      11.98590000       0.01792300      -0.56871500       0.04974800      -0.03509100
Cu       0.74654000       6.23657000      11.98180000       0.02953000      -0.47229600       0.35034700       0.07776300
Cu       3.16365000       6.38128000      11.96340000       0.02251400       0.36211600      -0.77074100       0.21747400
Cu       5.85348000       6.19986000      12.07430000       0.01530100      -0.70385800       0.45163100      -0.90100200
Cu       9.48996000       8.33533000      11.96770000       0.02186200       0.29425900       0.92500100       0.04546300
Cu       1.83654000       8.54118000      12.09290000       0.01204600       0.01723700      -0.75282600      -0.80818900
Cu       4.36538000       8.47008000      11.94680000       0.01501600       0.71431800      -0.00940400       0.08441800
Cu       6.97660000       8.54937000      11.93040000       0.02138100      -0.07591700      -0.59933100       0.05031500
Cu       5.70396000       0.36591000      14.03060000       0.03082700      -0.01479100      -0.01134300      -0.07325900
Cu       8.23906000       0.36591000      14.03060000       0.00496100       0.02244600      -0.03024500       0.01881400
Cu       0.63377000       0.36591000      14.03060000      -0.02139300      -0.30160100       0.09259400       0.40501900
Cu       3.16887000       0.36591000      14.03060000       0.00329200       0.13754000      -0.00102700       0.37741800
Cu       6.97151000       2.56137000      14.03060000       0.02596000      -0.07572200       0.15025900       0.11328100
Cu       9.50660000       2.56137000      14.03060000      -0.03019000      -0.11259600      -0.00091800       0.38637500
Cu       1.90132000       2.56137000      14.03060000       0.01029100       0.06288100       0.10408900       0.30333900
Cu       4.43642000       2.56137000      14.03060000      -0.00629200      -0.10575300       0.07040100       0.05304200
Cu       8.23906000       4.75682000      14.03060000       0.03135000      -0.14995300      -0.09200400      -0.03207500
Cu       0.63377000       4.75682000      14.03060000      -0.02118700       0.02827300       0.09523900       0.41345200
Cu       3.16887000       4.75682000      14.03060000      -0.00056100       0.04078300       0.09631900       0.06894500
Cu       5.70396000       4.75682000      14.03060000       0.00302500      -0.02007800      -0.24821000       0.01174300
Cu       9.50660000       6.95228000      14.03060000       0.00264200       0.10303800      -0.04713700       0.17736800
Cu       1.90132000       6.95228000      14.03060000       0.00279300       0.03905600      -0.02042600       0.26865700
Cu       4.43642000       6.95228000      14.03060000      -0.00013600       0.07479500       0.01801200       0.00557800
Cu       6.97151000       6.95228000      14.03060000      -0.00257500       0.26693100       0.16874200       0.17940300
Cu       6.97151000       1.09773000      16.10050000       0.03081300       0.03280600      -0.01303800       0.50217400
Cu       9.50660000       1.09773000      16.10050000      -0.00716900      -0.13546400       0.12412600       0.18785600
Cu       1.90132000       1.09773000      16.10050000       0.00259500       0.03064400       0.11522200       0.02536600
Cu       4.43642000       1.09773000      16.10050000      -0.02688500      -0.12927600       0.19464400      -0.13724900
Cu       8.23906000       3.29318000      16.10050000      -0.00601700      -0.13878800      -0.21237500       0.05615000
Cu       0.63377000       3.29318000      16.10050000      -0.01085000      -0.31790400      -0.04427400      -0.30972000
Cu       3.16887000       3.29318000      16.10050000      -0.00592800      -0.14239100      -0.10959300       0.01525900
Cu       5.70396000       3.29318000      16.10050000      -0.01300100      -0.20641200      -0.10306300      -0.07048400
Cu       9.50660000       5.48864000      16.10050000       0.00061800      -0.12469200       0.02855800      -0.00153500
Cu       1.90132000       5.48864000      16.10050000      -0.00367400      -0.13682700       0.07765600      -0.16006900
Cu       4.43642000       5.48864000      16.10050000       0.00110400      -0.12569200      -0.04521500       0.11149800
Cu       6.97151000       5.48864000      16.10050000       0.00485200      -0.13065400       0.01081600       0.10649700
Cu       0.63377000       7.68410000      16.10050000      -0.02384000      -0.10020200       0.02950500      -0.10613600
Cu       3.16887000       7.68410000      16.10050000      -0.00349300      -0.07289200       0.03290200      -0.15580600
Cu       5.70396000       7.68410000      16.10050000       0.03242900       0.16027400       0.00656500       0.18068900
Cu       8.23906000       7.68410000      16.10050000      -0.00176000      -0.12625700       0.04225000       0.20927500
Cu       5.56360000       1.76308000      18.20720000       0.00344000       0.50962500       0.46536200       0.06335900
Cu       8.09820000       1.79035000      18.45350000       0.01141400      -0.16542500       0.04155100      -1.21295900
Cu       0.62539000       1.87289000      18.16070000       0.02387300      -0.66866800      -0.13682400       0.25179200
Cu       3.06128000       1.75258000      18.30790000       0.02267000       0.17113600       0.81685800      -0.86958500
Cu       6.82957000       3.95045000      18.12830000       0.01294800      -0.10911700       0.27472200       0.67678400
Cu       9.27721000       4.06633000      18.16270000       0.00691700       0.44221900      -0.17849100       0.37288900
Cu       1.70367000       4.02436000      18.07980000       0.00882500       0.35594300       0.30841900       0.78957600
Cu       4.26068000       3.93697000      18.17710000       0.00273800       0.35902500       0.49218900      -0.14627700
Cu       8.05595000       6.22267000      18.19710000       0.01681300       0.07880700       0.00705300       0.13653900
Cu       0.46148000       6.29843000      18.16620000       0.01196100      -0.05065600      -0.45276000       0.03464900
Cu       2.97440000       6.28530000      18.15010000       0.00882800       0.39661800      -0.30591900       0.17611600
Cu       5.52010000       6.22171000      18.19920000       0.02199600       0.24164900       0.24022400      -0.37189000
Cu       9.41765000       8.45664000      18.16270000       0.00306900      -0.23574500      -0.04067700       0.11597300
Cu       1.79272000       8.44456000      18.13940000       0.02450800      -0.07605100      -0.14628600      -0.07092900
Cu       4.40108000       8.46607000      18.08730000       0.00402000      -0.43490900      -0.69100300       0.42905500
Cu       6.90705000       8.36797000      18.41890000       0.02557700      -0.06975800       0.19179900      -0.48620100
Cu       5.35930000       0.34126000      20.24960000      -0.06552600       0.29741800       0.58773900       0.17928200
Cu       8.21878000       0.39728000      20.44450000       0.00362000      -1.13737700      -0.05981400      -0.07496900
Cu       0.39809000       0.38771000      20.22950000      -0.03232400       0.64052100       0.07224000      -0.03566800
Cu       2.83069000       0.41615000      20.17920000      -0.07168400       0.71503200      -0.52884100       0.71828000
Cu       6.74421000       2.58863000      20.42020000      -0.04410600       0.28174000       0.10043200      -0.62201200
Cu       9.37548000       2.54822000      20.22340000      -0.07036400       0.31822900       0.79183300       0.32951300
Cu       1.80797000       2.59349000      20.36930000      -0.05271900      -0.44178000       0.25340400      -0.52160600
Cu       4.34000000       2.65816000      20.26060000      -0.05164100      -0.21524500      -0.19400800       0.08620700
Cu       7.96703000       4.92370000      20.36860000      -0.04335600       0.09827400      -0.58046500      -0.49118600
Cu       0.42294000       4.82836000      20.22180000      -0.05616200       0.06416300      -0.32859700      -0.22134000
Cu       3.01319000       4.73373000      20.12410000      -0.08946600      -0.34439600       0.36747700      -0.07378800
Cu       5.49569000       5.03006000      20.18910000      -0.05634500       0.20569600      -1.38107100       0.39943400
Cu       9.25197000       6.97887000      20.28560000      -0.01926200       0.14730900       0.03721800      -0.35760100
Cu       1.63626000       7.00773000      20.17780000      -0.05586100       0.25446100      -0.16558000       0.14521200
Cu       4.19647000       6.99697000      20.26430000      -0.02677800      -0.47501000       0.28564400      -0.25834600
Cu       6.67772000       7.12322000      20.56960000      -0.03821300       0.39171100      -0.26776800      -0.58797700
O        8.29764000       3.19985000      23.27860000      -1.34391100      -3.80068400       0.34821900      -0.93056500
O        8.70647000       7.26146000       1.47937000      -1.29714400       0.05180500       1.81410500       0.68302700
O        1.45822000       8.47623000      23.81550000      -1.30697500      -0.56076800      -0.11512700       0.40979500
O        4.98228000       2.65154000      23.64900000      -1.29333000       0.72623200       1.07136700      -0.37417200
O        7.34168000       2.71351000      27.46810000      -1.32327500      -1.69388600      -0.81647100      -0.33444600
O        3.06843000       3.03541000      25.43320000      -1.34726800      -0.33320900      -0.52717200       0.72500300
O        0.18231000       5.12790000       1.80966000      -1.34956700       0.43395000      -0.00125000      -0.41186100
O        5.85721000       6.13093000      29.67670000      -1.26196000       1.65991200      -0.25558200       0.11354800
O        6.44401000       5.08468000      24.09630000      -1.33970400      -1.93102000       0.59382700       0.72466100
O        4.54347000       7.48466000      23.73840000      -1.29210900      -0.16677300      -2.14461900      -0.57353800
O        8.27127000       7.00623000      28.37990000      -1.30747400       0.00481400      -1.26850000      -0.53692800
O        9.16378000       8.66564000      26.10230000      -1.31274700       0.95078100      -1.12043500       0.57600200
O        8.00307000       0.44708000       5.05602000      -1.34915800      -0.10353800      -0.14193500      -0.61493600
O        3.65285000       8.43632000      26.00910000      -1.34804400      -0.70859900      -0.19641300      -0.63421700
O        8.94592000       2.59695000      29.71660000      -1.31536100       0.10941100       0.73299600      -0.71497400
O        6.11708000       8.69121000      27.25060000      -1.32967500       0.51927400       0.20599000       0.38423400
O        3.09660000       8.58615000       1.09840000      -1.24856300      -1.55626300      -1.04895000       1.63895800
O       10.03210000       0.75800000       1.28598000      -1.37028200       0.68985500      -0.52378700       0.63310800
O        0.80167000       3.12035000      23.41720000      -1.25192900       0.04134700      -0.46991900      -2.14946900
O        2.77437000       1.32205000       5.58770000      -1.39232900      -1.65168900      -0.73507400       1.15798800
O        1.33277000       4.28798000      28.95100000      -1.38323800      -0.21714300       0.70219900       2.87224300
O        5.85083000       6.98214000       2.17536000      -1.33184500       0.58112500      -2.53761300      -0.11553300
O       10.06412000       5.60937000      24.70460000      -1.33909200       0.37272600       0.73085600       2.30260400
O        8.66683000       7.24488000      23.24140000      -1.28639200      -1.26772200       0.77285200      -0.39548700
O        6.40947000       3.60417000       0.49888000      -1.32650100      -1.62818100      -0.34258800      -0.02320900
O        7.15800000       6.00763000       6.15172000      -1.28218400      -1.53173100       1.51726800       0.14900400
O        9.83749000       7.56065000       6.31590000      -1.33180100       0.89373200      -1.03639800       0.54285600
O        1.99391000       7.67041000       5.27958000      -1.36567300       1.02019200      -0.10063600      -0.28986700
O        2.46518000       6.32527000       2.68776000      -1.34710300      -0.99694700       1.82065100      -0.14343400
O        2.69981000       2.27491000      28.04900000      -1.35130000      -0.44510000      -0.99072700      -1.74890400
O        4.55477000       1.76307000      30.00285000      -1.34158900      -0.89866900      -0.48046900      -0.16529100
O        5.76361000       3.67986000       7.28000000      -1.30717700       0.76490600       0.34105100       0.36782400
O        7.21449000       0.93030000      24.60590000      -1.32255000       1.90416700       2.03773700      -1.41886600
O        4.51346000       7.24577000       6.76073000      -1.26486200      -1.24400800       0.44038500       0.34672600
O        9.19730000       4.74328000      27.01500000      -1.32656300       0.11315900      -1.05397000      -1.29639800
O        9.73194000       5.00785000       6.98387000      -1.31061300       0.07039300      -0.67619000       0.43233800
O        0.31446000       1.28428000       7.10667000      -1.25822700      -0.07411800       1.25149800       0.84646100
O        2.94995000       4.14098000       7.36448000      -1.28943600       0.07566300      -0.19974500      -0.38851100
O        2.76837000       5.45340000      23.23100000      -1.28559000       0.61622900       0.31125900       1.20337300
O       10.08006000       2.01503000       3.99784000      -1.28916500       1.68136100       0.17304300      -0.45336800
O        4.22948000       3.82795000       4.30810000      -1.32626700      -0.64743100      -0.80095000      -1.62572700
O        5.49502000       0.50219000       3.60927000      -1.30927500       0.64048000      -1.40094400       0.41986800
O        3.77880000       6.40159000      27.72560000      -1.40415500      -0.94273200      -2.36100900       1.38634700
O        5.73359000       4.65153000      26.80540000      -1.32044900       0.08285000      -0.18053000       0.04018200
O        2.32347000       3.32803000       1.77110000      -1.30935100      -1.50514600       1.79187500       1.73465300
O        0.86672000       7.25216000      29.33590000      -1.35724500      -1.31794800       1.64673600      -0.83531000
O        1.33729000       0.22306000      27.36470000      -1.35440900       0.01426100      -0.38444800      -0.48393600
O        6.53534000       4.43811000       3.21005000      -1.32677200       0.61642500      -0.99963000      -0.45813500
O        8.94704000       4.22366000       4.15217000      -1.29755900      -0.08930500       0.28434300       1.67093100
O        6.17383000       0.85927000       7.01544000      -1.30665800       0.23632800       0.33110400       0.39276300
H        8.13737000       3.19418000      22.30620000       0.58540100       0.05540100      -0.12948100       0.50960400
H        9.21347000       3.17162000      23.35580000       0.68837900       3.35185500      -0.19988300       0.60992000
H        7.75725000       7.36974000       1.69336000       0.63183200       0.18999400      -0.41875400      -0.07259500
H        9.09166000       8.18199000       1.71010000       0.64090400      -0.41309400      -1.46112900      -0.82218300
H        9.59227000       3.34356000      29.66960000       0.63977800      -0.31418400      -0.61522700      -0.20801200
H        1.58175000       8.43088000      22.84840000       0.62362500      -0.79828100      -0.11646600       0.53639400
H        5.04894000       2.19192000      22.81500000       0.60852800      -0.10160900      -0.55424200      -0.53158300
H        5.42880000       3.51442000      23.43980000       0.65353000      -0.51048500      -0.50702600       0.71798900
H        6.56421000       3.34476000      27.45790000       0.65736700       0.83909900       0.33957700      -0.05112300
H        6.81319000       1.90537000      27.22480000       0.66042700       1.11346400       0.08951000       0.41108300
H        6.82955000       6.34489000      29.54100000       0.62466100      -1.11468600       0.51862400      -0.35960000
H        2.63868000       3.73614000      24.97740000       0.65832300      -0.81291400       1.22663200      -0.34301200
H        7.62457000       0.73078000       5.90724000       0.67720200      -0.37641600      -0.02067200      -0.30335100
H        9.76882000       5.89592000       1.57830000       0.69121900      -0.30632700       0.12691300       0.02472400
H        9.02169000       7.08425000      28.98650000       0.65000000       0.17669100      -0.00117900      -0.04979400
H        5.99323000       5.16187000      29.76780000       0.63788800      -0.57467900      -0.15840600       0.30777000
H        6.26281000       5.96521000      23.75430000       0.66018800      -0.13306300       0.24703600       0.11323300
H        4.11034000       6.60148000      23.44610000       0.65067200       0.33954900       1.40278200       0.68158300
H        4.37907000       8.03537000      22.97800000       0.61413500      -0.03810200       0.51829500      -0.50698600
H        2.57686000       0.37913000       5.30389000       0.68603200       0.25644100       0.53441700       0.15206900
H        8.44603000       6.12901000      27.90300000       0.66099900      -0.10929000       1.08789200       0.44613300
H        0.06282000       5.23951000      23.87700000       0.64639400       0.46059300      -1.47591400      -2.27567600
H        8.41700000       0.39730000      25.83900000       0.66572600      -1.07507600       1.11424000      -0.84622000
H        8.75367000       8.10786000      26.78410000       0.64513600       0.11111100      -0.34373100       0.36899100
H        3.66865000       2.73783000      24.75020000       0.69001100       0.80266100      -0.49657200      -0.21747400
H        7.24559000       0.43651000       4.40664000       0.66930600       0.44360800       0.10115500       0.76796100
H        2.70908000       8.59484000      26.19280000       0.66461800       0.00748000       0.45158000       0.59034000
H        3.59246000       8.00806000      25.12980000       0.67996900       0.71052500       0.29188100       0.18889000
H        9.86413000       4.74337000       2.56705000       0.65508100      -0.04418300      -0.10513100       0.39512700
H        8.51112000       2.55583000      28.81560000       0.67555200       0.34396100       0.05216900       0.72988200
H        5.20211000       8.75886000      26.93310000       0.68027200      -0.14155100      -0.35699700       0.35977000
H        3.12289000       7.63479000       1.40191000       0.64683300       0.57441000       0.80990700      -0.46944800
H        2.29628000       0.02110000       1.64825000       0.59399100       0.88879200       0.40904300      -0.98419600
H        0.11237000       1.42968000       1.93938000       0.67345700      -0.08795300       0.14465400       0.29606200
H        9.82945000       1.25870000       0.49124000       0.70236200      -0.52870200       0.49077100      -0.65278700
H        1.15902000       2.32678000      23.84710000       0.65670500       0.04649500      -0.04357100      -0.04372000
H        0.83015000       2.91873000      22.40090000       0.55097900       0.14995500       0.28111000       2.13741700
H        6.15580000       8.21734000      28.10840000       0.65014000      -0.30043400       0.40004500      -0.93899200
H        3.44125000       1.69818000       5.05756000       0.67250300       1.37709000       0.71480300      -1.11722600
H        1.86825000       3.54510000      28.67170000       0.69940500       0.55453600      -0.86804100      -0.85133600
H        0.90019000       4.69418000      28.23470000       0.65940900      -0.81824400       0.35625000      -1.66600300
H        7.16605000       4.74914000      23.61730000       0.67490100       1.99667800      -0.84958900      -0.84394000
H        6.15949000       6.10735000       2.62564000       0.65271100      -0.45117500       1.61783900      -0.19615900
H        5.70085000       6.58248000       1.26261000       0.65931400       0.01732200       0.96437000       0.29403800
H        9.34733000       6.22175000      24.54300000       0.70463300      -0.41497800       0.48170800      -0.07906800
H        8.23156000       7.12439000      22.36350000       0.56588700       0.46729900      -0.23627800       0.26903800
H        5.73012000       2.92978000       0.15778000       0.67478200       0.76821900       0.59494500       0.49287100
H        6.49062000       6.76757000       6.18741000       0.62579700       1.37748500      -1.14774600      -0.12736000
H        7.24630000       3.36753000       0.10320000       0.65239400       0.90614400      -0.51865200      -0.20027400
H        8.04410000       7.89512000      23.63350000       0.65536100       0.48089700       0.11866200       0.29696300
H        6.53499000       5.28874000       6.32175000       0.64589900       0.17631500      -0.51296700       0.08114400
H       10.01240000       8.14142000       7.05620000       0.66150700      -0.20086900       0.75802400       0.24283900
H        9.06062000       7.87080000       5.86742000       0.69943400      -1.14238700       0.69057400      -0.68147800
H        1.06254000       7.64655000       5.58253000       0.68673300      -0.39905600      -0.12758200       0.08031700
H        3.22358000       5.83523000       2.92914000       0.65564900       1.06253400      -1.18955700       0.16666500
H        2.77269000       2.56746000      27.09010000       0.67442100       0.61103500       0.15562000       1.04742000
H        2.01805000       7.27148000       4.39671000       0.68030300       0.10644800      -0.29687800      -0.35492800
H        2.16247000       1.43103000      27.82220000       0.67367200       0.23958700       0.83613700       0.79966600
H        4.14302000       1.09956000       0.45122000       0.66429300       0.46858500      -0.25405700       0.39902200
H        3.93122000       1.64991000      29.24520000       0.67003000       0.55007800       0.91980100      -0.26821200
H        4.91408000       4.00716000       7.01078000       0.65547900      -1.23602800       0.71424700       0.18509300
H        7.26972000       1.89778000      24.26200000       0.64432300      -0.23174900      -2.25254000       0.71126600
H        5.78173000       2.86749000       6.78123000       0.66083900       0.52973400      -1.14756900      -0.11336400
H        6.33688000       0.73606000      24.85460000       0.68548700      -1.66698000      -0.03866200       0.47531600
H        2.77364000       2.78168000       1.19469000       0.63697600       1.73985300      -1.85179100      -2.05885700
H        3.63043000       7.33782000       6.28496000       0.65742200       1.02796900      -0.07356600       0.62389400
H        4.31970000       7.44250000       7.72185000       0.55679400       0.09523400      -0.33293200      -1.13730300
H        8.70004000       3.90110000      26.85220000       0.65362200       0.10128700       0.73107000       0.68428600
H        8.77841000       5.08523000       7.06171000       0.63210200      -0.57549700      -0.14881400       0.05769700
H        1.27615000       1.35236000       6.93475000       0.63704000      -0.34468400       0.15166600      -0.13521000
H        9.92690000       5.94933000       6.88763000       0.66531300       0.30779100       0.41206800      -0.28050800
H        9.62258000       4.86514000      26.11050000       0.66097500      -0.36566200       0.38655600       1.03385700
H        0.06914000       2.12420000       7.59865000       0.59835300       0.46829100      -1.17274400      -0.81492700
H        2.88315000       4.62040000       6.52248000       0.64323100      -0.10285000      -0.02118000       0.11441300
H        2.81263000       3.21482000       7.10483000       0.65369500      -0.03015300       0.14075000      -0.09172100
H        1.78408000       5.79088000       2.23462000       0.69098900      -0.18414100      -0.49863700       0.32853900
H        0.85344000       1.82242000       4.28264000       0.62963500      -0.31123000       0.28971700      -0.00402500
H        3.72306000       3.62132000       3.46852000       0.61009400       0.13074900       0.34347100       1.26722300
H        9.54913000       1.38767000       4.46673000       0.68222900      -1.10674000      -1.11771100       0.64354600
H        1.98110000       5.99902000      23.40040000       0.64600300       0.18124600      -0.23196600      -0.46846500
H        5.14239000       3.87796000       3.91148000       0.67699800       0.01389200       0.48583400       0.48390400
H        5.55817000       8.54371000       2.94925000       0.66533400      -0.16905700       0.21912400       0.40586100
H        5.19471000       1.24949000       3.12791000       0.64035300      -0.32632200       1.03168100      -0.72316700
H        0.53489000       8.23098000      24.10900000       0.65632500       1.23896700       0.29917000      -1.00162900
H        3.79616000       7.09195000      27.08630000       0.68648200       0.86299900       1.32816800      -0.76935200
H        6.00691000       4.69244000      25.88280000       0.64855000       0.20760700       0.08041000      -0.21445800
H        4.57674000       6.21013000      28.24590000       0.68875400       0.01862600       0.96915800      -0.31512900
H        4.83195000       4.99603000      26.80360000       0.66951000      -0.35512300       0.12921600       0.27049500
H        1.78225000       3.88762000       1.18411000       0.66619800      -0.05067300      -0.10352700       0.29748700
H        2.81279000       5.07893000      22.34900000       0.61282400      -0.63093200       0.02443500      -0.38878300
H        0.72389000       7.66043000       0.04952000       0.67081700      -0.05344600       0.62940600       0.64465700
H        1.30169000       6.46075000      29.51500000       0.70893100       1.41259000      -2.53156500       0.27955900
H        0.46276000       0.18987000      26.91840000       0.69244600      -0.07612900       0.22311300      -0.06699200
H        1.35803000       8.23422000      27.95630000       0.68041100      -0.06207200      -0.01796300       0.38142700
H        6.57480000       3.94346000       2.34231000       0.66457500      -0.00618900       0.57918000       0.43698500
H        7.40655000       4.19896000       3.68544000       0.65988500      -0.61422600       0.48517400      -0.67281000