 vasp.6.4.3 19Mar24 (build Sep  4 2024 12:23:58) complex                         
 executed on              LinuxNV date 2025.10.05  23:06:30
 running    4 mpi-ranks, with    1 threads/rank, on    1 nodes
 distrk:  each k-point on    2 cores,    2 groups
 distr:  one band on NCORE=   1 cores,    2 groups
 OpenACC runtime initialized ...    4 GPUs detected


--------------------------------------------------------------------------------------------------------


 INCAR:
   ENCUT = 800.000000
   SIGMA = 0.100000
   EDIFF = 1.00e-07
   ALGO = fast
   METAGGA = R2SCAN
   PREC = Accurate
   IBRION = -1
   ICHARG = 2
   ISMEAR = 0
   ISTART = 0
   KPAR = 2
   NELM = 160
   NPAR = 2
   NCORE = 1
   LAECHG = .TRUE.
   LASPH = .TRUE.
   LVHAR = .TRUE.
   LMIXTAU = .TRUE.
   LREAL = Auto

 POTCAR:    PAW_PBE Cu 22Jun2005                  
 POTCAR:    PAW_PBE O_h 06Feb2004                 
 POTCAR:    PAW_PBE H_h 06Feb2004                 
 POTCAR:    PAW_PBE Cu 22Jun2005                  
   VRHFIN =Cu: d10 p1                                                                               
   LEXCH  = PE                                                                                      
   EATOM  =  1390.9808 eV,  102.2342 Ry                                                             
                                                                                                    
   TITEL  = PAW_PBE Cu 22Jun2005                                                                    
   LULTRA =        F    use ultrasoft PP ?                                                          
   IUNSCR =        1    unscreen: 0-lin 1-nonlin 2-no                                               
   RPACOR =    2.000    partial core radius                                                         
   POMASS =   63.546; ZVAL   =   11.000    mass and valenz                                          
   RCORE  =    2.300    outmost cutoff radius                                                       
   RWIGS  =    2.200; RWIGS  =    1.164    wigner-seitz radius (au A)                               
   ENMAX  =  295.446; ENMIN  =  221.585 eV                                                          
   ICORE  =        3    local potential                                                             
   LCOR   =        T    correct aug charges                                                         
   LPAW   =        T    paw PP                                                                      
   EAUG   =  586.980                                                                                
   DEXC   =    0.000                                                                                
   RMAX   =    2.344    core radius for proj-oper                                                   
   RAUG   =    1.300    factor for augmentation sphere                                              
   RDEP   =    2.302    radius for radial grids                                                     
   RDEPT  =    1.771    core radius for aug-charge                                                  
                                                                                                    
   Atomic configuration                                                                             
    9 entries                                                                                       
     n  l   j            E        occ.                                                              
     1  0  0.50     -8850.2468   2.0000                                                             
     2  0  0.50     -1062.3498   2.0000                                                             
     2  1  1.50      -916.8226   6.0000                                                             
     3  0  0.50      -114.6929   2.0000                                                             
     3  1  1.50       -72.1325   6.0000                                                             
     3  2  2.50        -5.0394  10.0000                                                             
     4  0  0.50        -4.6097   1.0000                                                             
     4  1  0.50        -4.0817   0.0000                                                             
     4  3  2.50        -1.3606   0.0000                                                             
   Description                                                                                      
     l       E           TYP  RCUT    TYP  RCUT                                                     
     2     -5.0393973     23  2.200                                                                 
     2     10.8846608     23  2.200                                                                 
     0     -4.6097109     23  2.200                                                                 
     0      8.2520465     23  2.200                                                                 
     1     -2.7211652     23  2.200                                                                 
     1     21.7055443     23  2.200                                                                 
     3      2.7211652     23  2.300                                                                 
  local pseudopotential read in
  partial core-charges read in
  partial kinetic energy density read in
  atomic valenz-charges read in
  non local Contribution for L=            2  read in
    real space projection operators read in
  non local Contribution for L=            2  read in
    real space projection operators read in
  non local Contribution for L=            0  read in
    real space projection operators read in
  non local Contribution for L=            0  read in
    real space projection operators read in
  non local Contribution for L=            1  read in
    real space projection operators read in
  non local Contribution for L=            1  read in
    real space projection operators read in
    PAW grid and wavefunctions read in
 
   number of l-projection  operators is LMAX  =            6
   number of lm-projection operators is LMMAX =           18
 
 POTCAR:    PAW_PBE O_h 06Feb2004                 
   VRHFIN =O: s2p4                                                                                  
   LEXCH  = PE                                                                                      
   EATOM  =   432.3788 eV,   31.7789 Ry                                                             
                                                                                                    
   TITEL  = PAW_PBE O_h 06Feb2004                                                                   
   LULTRA =        F    use ultrasoft PP ?                                                          
   IUNSCR =        1    unscreen: 0-lin 1-nonlin 2-no                                               
   RPACOR =    0.800    partial core radius                                                         
   POMASS =   16.000; ZVAL   =    6.000    mass and valenz                                          
   RCORE  =    1.100    outmost cutoff radius                                                       
   RWIGS  =    1.400; RWIGS  =    0.741    wigner-seitz radius (au A)                               
   ENMAX  =  700.000; ENMIN  =  500.000 eV                                                          
   ICORE  =        2    local potential                                                             
   LCOR   =        T    correct aug charges                                                         
   LPAW   =        T    paw PP                                                                      
   EAUG   =  888.804                                                                                
   DEXC   =    0.000                                                                                
   RMAX   =    1.128    core radius for proj-oper                                                   
   RAUG   =    1.300    factor for augmentation sphere                                              
   RDEP   =    1.125    radius for radial grids                                                     
   RDEPT  =    1.088    core radius for aug-charge                                                  
                                                                                                    
   Atomic configuration                                                                             
    4 entries                                                                                       
     n  l   j            E        occ.                                                              
     1  0  0.50      -514.6923   2.0000                                                             
     2  0  0.50       -23.9615   2.0000                                                             
     2  1  0.50        -9.0305   4.0000                                                             
     3  2  1.50        -9.5241   0.0000                                                             
   Description                                                                                      
     l       E           TYP  RCUT    TYP  RCUT                                                     
     0    -23.9615319     23  1.100                                                                 
     0    -25.3221145     23  1.100                                                                 
     1     -9.0304911     23  1.100                                                                 
     1     -5.4802209     23  1.100                                                                 
     2     -9.5240782      7  1.100                                                                 
  local pseudopotential read in
  partial core-charges read in
  partial kinetic energy density read in
  atomic valenz-charges read in
  non local Contribution for L=            0  read in
    real space projection operators read in
  non local Contribution for L=            0  read in
    real space projection operators read in
  non local Contribution for L=            1  read in
    real space projection operators read in
  non local Contribution for L=            1  read in
    real space projection operators read in
    PAW grid and wavefunctions read in
 
   number of l-projection  operators is LMAX  =            4
   number of lm-projection operators is LMMAX =            8
 
 POTCAR:    PAW_PBE H_h 06Feb2004                 
   VRHFIN =H: ultrasoft test                                                                        
   LEXCH  = PE                                                                                      
   EATOM  =    12.4884 eV,    0.9179 Ry                                                             
                                                                                                    
   TITEL  = PAW_PBE H_h 06Feb2004                                                                   
   LULTRA =        F    use ultrasoft PP ?                                                          
   IUNSCR =        0    unscreen: 0-lin 1-nonlin 2-no                                               
   RPACOR =    0.000    partial core radius                                                         
   POMASS =    1.000; ZVAL   =    1.000    mass and valenz                                          
   RCORE  =    0.800    outmost cutoff radius                                                       
   RWIGS  =    0.700; RWIGS  =    0.370    wigner-seitz radius (au A)                               
   ENMAX  =  700.000; ENMIN  =  350.000 eV                                                          
   RCLOC  =    0.701    cutoff for local pot                                                        
   LCOR   =        T    correct aug charges                                                         
   LPAW   =        T    paw PP                                                                      
   EAUG   = 1000.000                                                                                
   RMAX   =    0.819    core radius for proj-oper                                                   
   RAUG   =    1.000    factor for augmentation sphere                                              
   RDEP   =    0.817    radius for radial grids                                                     
   RDEPT  =    0.817    core radius for aug-charge                                                  
                                                                                                    
   Atomic configuration                                                                             
    2 entries                                                                                       
     n  l   j            E        occ.                                                              
     1  0  0.50        -6.4927   1.0000                                                             
     2  1  0.50        -3.4015   0.0000                                                             
   Description                                                                                      
     l       E           TYP  RCUT    TYP  RCUT                                                     
     0     -6.4927493     23  0.800                                                                 
     0      6.8029130     23  0.800                                                                 
     1     -6.8029130     23  0.800                                                                 
  local pseudopotential read in
  atomic valenz-charges read in
  non local Contribution for L=            0  read in
    real space projection operators read in
  non local Contribution for L=            0  read in
    real space projection operators read in
  non local Contribution for L=            1  read in
    real space projection operators read in
    PAW grid and wavefunctions read in
 
   number of l-projection  operators is LMAX  =            3
   number of lm-projection operators is LMMAX =            5
 
 Optimization of the real space projectors (new method)

 maximal supplied QI-value         = 16.25
 optimisation between [QCUT,QGAM] = [ 14.46, 28.93] = [ 58.58,234.33] Ry 
 Optimized for a Real-space Cutoff    1.35 Angstroem

   l    n(q)    QCUT    max X(q) W(low)/X(q) W(high)/X(q)  e(spline) 
   2     11    14.464     4.610    0.56E-04    0.10E-03    0.52E-06
   2     11    14.464     8.522    0.88E-04    0.16E-03    0.84E-06
   0     12    14.464    51.609    0.44E-04    0.29E-04    0.63E-06
   0     12    14.464    27.747    0.38E-04    0.27E-04    0.60E-06
   1     11    14.464    20.408    0.64E-04    0.66E-04    0.14E-06
   1     11    14.464    13.425    0.56E-04    0.59E-04    0.13E-06
 Optimization of the real space projectors (new method)

 maximal supplied QI-value         = 34.20
 optimisation between [QCUT,QGAM] = [ 14.37, 28.73] = [ 57.79,231.16] Ry 
 Optimized for a Real-space Cutoff    0.98 Angstroem

   l    n(q)    QCUT    max X(q) W(low)/X(q) W(high)/X(q)  e(spline) 
   0      8    14.366   280.207    0.54E-04    0.14E-03    0.22E-06
   0      8    14.366   228.978    0.55E-04    0.14E-03    0.22E-06
   1      8    14.366    86.127    0.24E-03    0.25E-03    0.26E-06
   1      8    14.366    65.368    0.24E-03    0.24E-03    0.26E-06
 Optimization of the real space projectors (new method)

 maximal supplied QI-value         = 47.24
 optimisation between [QCUT,QGAM] = [ 14.17, 28.82] = [ 56.25,232.56] Ry 
 Optimized for a Real-space Cutoff    0.95 Angstroem

   l    n(q)    QCUT    max X(q) W(low)/X(q) W(high)/X(q)  e(spline) 
   0      8    14.173    34.671    0.25E-03    0.45E-03    0.25E-06
   0      8    14.173    17.046    0.24E-03    0.43E-03    0.25E-06
   1      8    14.173     1.978    0.58E-04    0.22E-03    0.31E-06
 -----------------------------------------------------------------------------
|                                                                             |
|               ----> ADVICE to this user running VASP <----                  |
|                                                                             |
|     You enforced a specific xc type in the INCAR file but a different       |
|     type was found in the POTCAR file.                                      |
|     I HOPE YOU KNOW WHAT YOU ARE DOING!                                     |
|                                                                             |
 -----------------------------------------------------------------------------

  PAW_PBE Cu 22Jun2005                  :
 energy of atom  1       EATOM=-1390.9808
 kinetic energy error for atom=    0.0007 (will be added to EATOM!!)
  PAW_PBE O_h 06Feb2004                 :
 energy of atom  2       EATOM= -432.3788
 kinetic energy error for atom=    0.0500 (will be added to EATOM!!)
  PAW_PBE H_h 06Feb2004                 :
 energy of atom  3       EATOM=  -12.4884
 kinetic energy error for atom=    0.0035 (will be added to EATOM!!)
 
 
 POSCAR: Cu O  H
  positions in cartesian coordinates
  No initial velocities read in


 exchange-correlation table for R2SCAN
   RHO(1)=    0.500       N(1)  =     2000
   RHO(2)=  100.500       N(2)  =     4000
 


--------------------------------------------------------------------------------------------------------


 ion  position               nearest neighbor table
   1  0.701  0.135  0.329-   2 2.42  32 2.46   8 2.48  18 2.48   4 2.58   5 2.59  17 2.63  16 2.68
                            15 2.69
   2  0.939  0.131  0.328-   1 2.42   3 2.50   6 2.51   5 2.52  16 2.53  19 2.62  29 2.62  13 2.63
                            18 2.63
   3  0.185  0.119  0.331-  13 2.43  20 2.46  30 2.48   2 2.50   7 2.51  14 2.55   6 2.56  19 2.57
                             4 2.66
   4  0.447  0.120  0.328-  31 2.48   7 2.55  17 2.55  15 2.56  14 2.57   1 2.58   8 2.65   3 2.66
                            20 2.69
   5  0.830  0.389  0.326-  12 2.38   6 2.39   9 2.47   2 2.52   8 2.54  21 2.57  22 2.57   1 2.59
                            18 2.67
   6  0.065  0.375  0.331-   5 2.39  19 2.46  22 2.50   7 2.51   2 2.51  23 2.51  10 2.52   9 2.52
                             3 2.56
   7  0.312  0.365  0.330-  24 2.47  20 2.50   6 2.51   3 2.51   4 2.55  10 2.57  11 2.59  23 2.60
                             8 2.73
   8  0.580  0.380  0.326-  21 2.41  12 2.44   1 2.48   5 2.54  11 2.60  17 2.62   4 2.65  24 2.72
                             7 2.73
   9  0.952  0.632  0.332-  16 2.42  10 2.43  26 2.44  25 2.46  13 2.46   5 2.47  12 2.52   6 2.52
                            22 2.54
  10  0.191  0.622  0.330-   9 2.43  23 2.47  11 2.47  26 2.49  14 2.52   6 2.52  13 2.52  27 2.54
                             7 2.57
  11  0.435  0.624  0.331-  24 2.43  10 2.47  14 2.49  27 2.52  15 2.54   7 2.59   8 2.60  28 2.65
                            12 2.73
  12  0.704  0.617  0.329-  21 2.34   5 2.38   8 2.44   9 2.52  25 2.53  15 2.57  16 2.58  28 2.64
                            11 2.73
  13  0.073  0.875  0.329-   3 2.43  16 2.44  14 2.46   9 2.46  10 2.52  26 2.53  29 2.57  30 2.59
                             2 2.63
  14  0.315  0.871  0.330-  27 2.39  13 2.46  31 2.46  11 2.49  10 2.52   3 2.55   4 2.57  15 2.60
                            30 2.70
  15  0.571  0.867  0.330-  32 2.50  11 2.54  28 2.56   4 2.56  12 2.57  14 2.60  31 2.61  16 2.64
                             1 2.69
  16  0.832  0.870  0.330-  29 2.38   9 2.42  13 2.44  25 2.50   2 2.53  12 2.58  32 2.62  15 2.64
                             1 2.68
  17  0.559  0.217  0.398-  40 2.46  37 2.50  32 2.51  24 2.52  18 2.53  21 2.54  33 2.55   4 2.55
                            31 2.57  20 2.61   8 2.62   1 2.63
  18  0.808  0.218  0.399-  37 2.44  32 2.47  38 2.48   1 2.48  21 2.51  17 2.53  34 2.53  22 2.54
                            19 2.58   2 2.63   5 2.67  29 2.69
  19  0.062  0.221  0.400-  22 2.41  20 2.43  38 2.44  39 2.44   6 2.46  30 2.49  23 2.51  35 2.54
                             3 2.57  18 2.58   2 2.62  29 2.71
  20  0.302  0.204  0.398-  30 2.37  19 2.43  39 2.46   3 2.46  31 2.48  36 2.48   7 2.50  40 2.57
                            17 2.61  24 2.61  23 2.62   4 2.69
  21  0.686  0.465  0.393-  12 2.34  28 2.40   8 2.41  18 2.51  17 2.54  25 2.54   5 2.57  24 2.61
                            44 2.62  22 2.63  41 2.63  37 2.68
  22  0.945  0.460  0.400-  19 2.41  42 2.43  23 2.44  25 2.48  38 2.48   6 2.50  41 2.51  18 2.54
                             9 2.54  26 2.56   5 2.57  21 2.63
  23  0.185  0.470  0.399-  26 2.39  22 2.44  42 2.45  10 2.47  24 2.47  43 2.48   6 2.51  19 2.51
                            39 2.55   7 2.60  27 2.60  20 2.62
  24  0.429  0.463  0.396-  11 2.43   7 2.47  23 2.47  43 2.50  17 2.52  40 2.57  44 2.59  27 2.60
                            21 2.61  20 2.61  28 2.62   8 2.72
  25  0.825  0.706  0.398-  29 2.42   9 2.46  45 2.46  22 2.48  16 2.50  41 2.50  28 2.51  26 2.52
                            12 2.53  21 2.54  48 2.59  32 2.73
  26  0.074  0.710  0.398-  23 2.39  27 2.42   9 2.44  46 2.46  10 2.49  25 2.52  29 2.52  13 2.53
                            42 2.53  30 2.55  22 2.56  45 2.57
  27  0.312  0.727  0.397-  14 2.39  31 2.41  26 2.42  46 2.49  47 2.49  11 2.52  10 2.54  30 2.54
                            23 2.60  24 2.60  43 2.63  28 2.70
  28  0.577  0.706  0.401-  48 2.38  21 2.40  44 2.44  25 2.51  47 2.53  15 2.56  32 2.61  24 2.62
                            12 2.64  11 2.65  27 2.70  31 2.72
  29  0.936  0.949  0.397-  16 2.38  25 2.42  45 2.48  30 2.50  26 2.52  32 2.52  34 2.55  35 2.56
                            13 2.57   2 2.62  18 2.69  19 2.71
  30  0.181  0.973  0.401-  35 2.36  20 2.37  36 2.43   3 2.48  19 2.49  29 2.50  46 2.51  31 2.53
                            27 2.54  26 2.55  13 2.59  14 2.70
  31  0.430  0.965  0.396-  27 2.41  14 2.46  20 2.48   4 2.48  36 2.50  30 2.53  33 2.57  17 2.57
                            47 2.58  15 2.61  32 2.61  28 2.72
  32  0.688  0.974  0.396-   1 2.46  18 2.47  15 2.50  17 2.51  34 2.52  29 2.52  33 2.53  28 2.61
                            31 2.61  16 2.62  48 2.64  25 2.73
  33  0.562  0.042  0.466-  32 2.53  47 2.54  36 2.54  48 2.54  52 2.54  40 2.54  63 2.54  49 2.54
                            37 2.54  34 2.54  17 2.55  31 2.57
  34  0.813  0.042  0.466-  32 2.52  18 2.53  45 2.54  35 2.54  48 2.54  50 2.54  38 2.54  64 2.54
                            49 2.54  37 2.54  33 2.54  29 2.55
  35  0.063  0.042  0.466-  30 2.36  34 2.54  46 2.54  45 2.54  61 2.54  36 2.54  51 2.54  39 2.54
                            50 2.54  38 2.54  19 2.54  29 2.56
  36  0.313  0.042  0.466-  30 2.43  20 2.48  31 2.50  33 2.54  47 2.54  46 2.54  62 2.54  35 2.54
                            52 2.54  51 2.54  40 2.54  39 2.54
  37  0.688  0.292  0.466-  18 2.44  17 2.50  38 2.54  40 2.54  41 2.54  44 2.54  53 2.54  56 2.54
                            49 2.54  34 2.54  33 2.54  21 2.68
  38  0.937  0.292  0.466-  19 2.44  18 2.48  22 2.48  41 2.54  37 2.54  42 2.54  53 2.54  34 2.54
                            39 2.54  54 2.54  50 2.54  35 2.54
  39  0.187  0.292  0.466-  19 2.44  20 2.46  42 2.54  43 2.54  54 2.54  55 2.54  38 2.54  35 2.54
                            51 2.54  36 2.54  40 2.54  23 2.55
  40  0.438  0.292  0.466-  17 2.46  44 2.54  37 2.54  43 2.54  56 2.54  33 2.54  55 2.54  52 2.54
                            36 2.54  39 2.54  20 2.57  24 2.57
  41  0.813  0.542  0.466-  25 2.50  22 2.51  38 2.54  37 2.54  42 2.54  45 2.54  57 2.54  48 2.54
                            53 2.54  60 2.54  44 2.54  21 2.63
  42  0.063  0.542  0.466-  22 2.43  23 2.45  26 2.53  39 2.54  38 2.54  41 2.54  43 2.54  46 2.54
                            58 2.54  54 2.54  45 2.54  57 2.54
  43  0.313  0.542  0.466-  23 2.48  24 2.50  44 2.54  40 2.54  39 2.54  42 2.54  47 2.54  46 2.54
                            55 2.54  59 2.54  58 2.54  27 2.63
  44  0.562  0.542  0.466-  28 2.44  40 2.54  43 2.54  37 2.54  47 2.54  59 2.54  48 2.54  56 2.54
                            60 2.54  41 2.54  24 2.59  21 2.62
  45  0.937  0.792  0.466-  25 2.46  29 2.48  34 2.54  48 2.54  35 2.54  41 2.54  64 2.54  46 2.54
                            57 2.54  42 2.54  61 2.54  26 2.57
  46  0.187  0.792  0.466-  26 2.46  27 2.49  30 2.51  35 2.54  36 2.54  42 2.54  45 2.54  61 2.54
                            43 2.54  58 2.54  62 2.54  47 2.54
  47  0.438  0.792  0.466-  27 2.49  28 2.53  33 2.54  48 2.54  36 2.54  44 2.54  63 2.54  43 2.54
                            59 2.54  62 2.54  46 2.54  31 2.58
  48  0.688  0.792  0.466-  28 2.38  45 2.54  47 2.54  34 2.54  33 2.54  41 2.54  44 2.54  60 2.54
                            64 2.54  63 2.54  25 2.59  32 2.64
  49  0.688  0.125  0.534-  50 2.54  52 2.54  53 2.54  56 2.54  64 2.54  63 2.54  37 2.54  34 2.54
                            33 2.54  65 2.62  66 2.70  80 2.77
  50  0.937  0.125  0.534-  77 2.51  53 2.54  64 2.54  49 2.54  54 2.54  61 2.54  34 2.54  51 2.54
                            38 2.54  35 2.54  67 2.54
  51  0.187  0.125  0.534-  78 2.50  54 2.54  55 2.54  61 2.54  62 2.54  50 2.54  35 2.54  39 2.54
                            36 2.54  52 2.54  67 2.54  68 2.58
  52  0.438  0.125  0.534-  79 2.44  65 2.48  56 2.54  63 2.54  49 2.54  55 2.54  62 2.54  33 2.54
                            40 2.54  36 2.54  51 2.54  68 2.68
  53  0.813  0.375  0.534-  70 2.43  50 2.54  49 2.54  54 2.54  38 2.54  57 2.54  37 2.54  60 2.54
                            41 2.54  56 2.54  69 2.56
  54  0.063  0.375  0.534-  71 2.37  67 2.50  51 2.54  50 2.54  53 2.54  39 2.54  55 2.54  58 2.54
                            38 2.54  42 2.54  57 2.54  70 2.66
  55  0.313  0.375  0.534-  72 2.43  56 2.54  52 2.54  51 2.54  54 2.54  40 2.54  39 2.54  59 2.54
                            58 2.54  43 2.54  71 2.57  68 2.69
  56  0.562  0.375  0.534-  69 2.41  52 2.54  55 2.54  49 2.54  40 2.54  59 2.54  37 2.54  60 2.54
                            44 2.54  53 2.54  65 2.61  72 2.61
  57  0.937  0.625  0.534-  74 2.47  70 2.52  60 2.54  53 2.54  64 2.54  41 2.54  58 2.54  45 2.54
                            54 2.54  61 2.54  42 2.54  73 2.65
  58  0.187  0.625  0.534-  75 2.45  71 2.47  54 2.54  61 2.54  57 2.54  42 2.54  55 2.54  62 2.54
                            46 2.54  43 2.54  59 2.54  74 2.65
  59  0.438  0.625  0.534-  76 2.47  60 2.54  56 2.54  63 2.54  44 2.54  55 2.54  62 2.54  47 2.54
                            43 2.54  58 2.54  72 2.60  75 2.64
  60  0.688  0.625  0.534-  73 2.47  57 2.54  59 2.54  53 2.54  56 2.54  64 2.54  63 2.54  48 2.54
                            41 2.54  44 2.54  69 2.55  76 2.65
  61  0.063  0.875  0.534-  78 2.47  74 2.49  64 2.54  51 2.54  50 2.54  35 2.54  62 2.54  58 2.54
                            46 2.54  57 2.54  45 2.54  77 2.59
  62  0.313  0.875  0.534-  79 2.47  75 2.49  63 2.54  52 2.54  51 2.54  36 2.54  61 2.54  59 2.54
                            58 2.54  47 2.54  46 2.54  78 2.57
  63  0.562  0.875  0.534-  79 2.50  52 2.54  62 2.54  59 2.54  49 2.54  47 2.54  33 2.54  60 2.54
                            48 2.54  64 2.54  76 2.56  80 2.70
  64  0.813  0.875  0.534-  77 2.50  50 2.54  61 2.54  57 2.54  49 2.54  45 2.54  34 2.54  60 2.54
                            48 2.54  63 2.54  73 2.56  80 2.76
  65  0.549  0.201  0.604-  79 2.38  52 2.48  81 2.50  68 2.50  69 2.53  72 2.53  66 2.55  88 2.55
                            80 2.57  56 2.61  49 2.62  85 2.64
  66  0.799  0.204  0.612-  86 2.31  82 2.43  80 2.51  77 2.51  85 2.52  69 2.53  65 2.55  70 2.58
                            67 2.68  49 2.70
  67  0.062  0.213  0.603-  71 2.41  68 2.44  78 2.50  54 2.50  50 2.54  51 2.54  83 2.56  86 2.58
                            77 2.58  87 2.61  70 2.65  66 2.68
  68  0.302  0.200  0.608-  84 2.31  67 2.44  78 2.45  79 2.47  72 2.50  88 2.50  65 2.50  87 2.55
                            51 2.58  71 2.66  52 2.68  55 2.69
  69  0.674  0.450  0.602-  56 2.41  70 2.45  66 2.53  65 2.53  60 2.55  53 2.56  72 2.57  73 2.58
                            76 2.62  85 2.67  92 2.68  89 2.69
  70  0.915  0.463  0.603-  53 2.43  69 2.45  73 2.48  57 2.52  90 2.54  86 2.56  71 2.57  66 2.58
                            74 2.60  67 2.65  54 2.66  89 2.71
  71  0.168  0.458  0.600-  54 2.37  67 2.41  58 2.47  91 2.53  72 2.56  70 2.57  55 2.57  74 2.59
                            75 2.59  90 2.62  68 2.66  87 2.70
  72  0.420  0.448  0.603-  55 2.43  91 2.45  88 2.45  68 2.50  65 2.53  71 2.56  69 2.57  59 2.60
                            92 2.60  76 2.61  56 2.61  75 2.68
  73  0.794  0.709  0.604-  80 2.44  60 2.47  70 2.48  93 2.52  89 2.53  76 2.54  74 2.55  64 2.56
                            69 2.58  77 2.62  57 2.65
  74  0.046  0.717  0.603-  94 2.44  77 2.46  57 2.47  61 2.49  75 2.51  78 2.53  90 2.53  73 2.55
                            71 2.59  70 2.60  93 2.60  58 2.65
  75  0.293  0.716  0.602-  58 2.45  78 2.46  62 2.49  91 2.51  74 2.51  94 2.53  95 2.54  76 2.55
                            71 2.59  79 2.61  59 2.64  72 2.68
  76  0.544  0.708  0.604-  92 2.32  59 2.47  79 2.51  73 2.54  75 2.55  63 2.56  80 2.56  95 2.57
                            72 2.61  69 2.62  60 2.65  96 2.79
  77  0.929  0.963  0.603-  83 2.46  74 2.46  64 2.50  50 2.51  66 2.51  78 2.52  80 2.53  67 2.58
                            61 2.59  93 2.59  73 2.62  82 2.68
  78  0.177  0.962  0.602-  84 2.41  68 2.45  75 2.46  61 2.47  51 2.50  94 2.50  67 2.50  77 2.52
                            74 2.53  62 2.57  79 2.61  83 2.62
  79  0.434  0.964  0.600-  65 2.38  52 2.44  81 2.45  62 2.47  68 2.47  63 2.50  76 2.51  80 2.53
                            75 2.61  78 2.61  95 2.63  84 2.72
  80  0.681  0.953  0.611-  73 2.44  96 2.50  66 2.51  81 2.51  77 2.53  79 2.53  82 2.55  76 2.56
                            65 2.57  63 2.70  64 2.76  49 2.77
  81  0.529  0.039  0.672-  96 2.42  95 2.42  79 2.45  65 2.50  80 2.51  84 2.53  88 2.53  85 2.65

  82  0.811  0.045  0.679-  83 2.33  66 2.43  93 2.44  86 2.45  80 2.55  96 2.57  85 2.64  77 2.68

  83  0.039  0.044  0.671-  82 2.33  84 2.43  86 2.45  77 2.46  94 2.49  93 2.54  67 2.56  78 2.62
                            87 2.62
  84  0.279  0.047  0.670-  68 2.31  78 2.41  87 2.41  83 2.43  94 2.49  81 2.53  95 2.59  88 2.70
                            79 2.72
  85  0.665  0.295  0.678-  88 2.41  66 2.52  89 2.64  86 2.64  65 2.64  82 2.64  81 2.65  69 2.67
                            92 2.75
  86  0.925  0.290  0.671-  66 2.31  82 2.45  83 2.45  70 2.56  90 2.57  87 2.58  67 2.58  85 2.64
                            89 2.77
  87  0.178  0.295  0.676-  84 2.41  91 2.47  88 2.54  68 2.55  86 2.58  67 2.61  83 2.62  90 2.63
                            71 2.70
  88  0.428  0.303  0.672-  85 2.41  72 2.45  91 2.47  68 2.50  81 2.53  87 2.54  65 2.55  92 2.64
                            84 2.70
  89  0.786  0.561  0.676-  93 2.43  92 2.48  73 2.53  96 2.56  90 2.60  85 2.64  69 2.69  70 2.71
                            86 2.77
  90  0.042  0.550  0.671-  94 2.49  93 2.52  74 2.53  70 2.54  86 2.57  91 2.59  89 2.60  71 2.62
                            87 2.63
  91  0.297  0.539  0.668-  72 2.45  88 2.47  87 2.47  92 2.50  75 2.51  71 2.53  95 2.56  90 2.59
                            94 2.66
  92  0.542  0.573  0.670-  76 2.32  95 2.36  96 2.43  89 2.48  91 2.50  72 2.60  88 2.64  69 2.68
                            85 2.75
  93  0.912  0.795  0.673-  89 2.43  82 2.44  90 2.52  73 2.52  94 2.53  83 2.54  77 2.59  96 2.59
                            74 2.60
  94  0.161  0.798  0.670-  74 2.44  83 2.49  90 2.49  84 2.49  78 2.50  93 2.53  75 2.53  95 2.56
                            91 2.66
  95  0.414  0.797  0.673-  92 2.36  81 2.42  96 2.50  75 2.54  91 2.56  94 2.56  76 2.57  84 2.59
                            79 2.63
  96  0.659  0.811  0.683-  81 2.42  92 2.43  80 2.50  95 2.50  89 2.56  82 2.57  93 2.59  76 2.79

  97  0.818  0.364  0.773- 148 0.92 147 0.99
  98  0.859  0.827  0.049- 149 0.98 150 1.02
  99  0.144  0.965  0.790- 152 0.98 230 1.00
 100  0.491  0.302  0.785- 153 0.95 154 0.99
 101  0.724  0.309  0.912- 156 1.00 155 1.00
 102  0.303  0.346  0.844- 158 0.94 171 0.96
 103  0.018  0.584  0.060- 175 0.97 160 0.97
 104  0.578  0.698  0.985- 162 0.98 157 1.00
 105  0.635  0.579  0.800- 188 0.93 163 0.96
 106  0.448  0.852  0.788- 165 0.95 164 1.03
 107  0.816  0.798  0.942- 161 0.97 167 1.01
 108  0.904  0.987  0.866- 169 0.94 170 0.97
 109  0.789  0.051  0.168- 159 0.97 172 1.00
 110  0.360  0.961  0.863- 173 0.97 174 0.98
 111  0.882  0.296  0.986- 151 0.99 176 1.00
 112  0.603  0.990  0.904- 177 0.97 184 0.98
 113  0.305  0.978  0.036- 179 0.99 178 1.00
 114  0.989  0.086  0.043- 181 0.96 180 0.96
 115  0.079  0.355  0.777- 182 0.97 183 1.04
 116  0.274  0.151  0.185- 185 0.93 166 1.00
 117  0.131  0.488  0.961- 187 0.93 186 0.96
 118  0.577  0.795  0.072- 190 1.01 189 1.03
 119  0.992  0.639  0.820- 168 0.92 191 0.96
 120  0.855  0.825  0.771- 196 0.98 192 0.99
 121  0.632  0.410  0.017- 195 0.96 193 1.02
 122  0.706  0.684  0.204- 197 0.97 194 1.01
 123  0.970  0.861  0.210- 199 0.95 198 0.96
 124  0.197  0.873  0.175- 203 0.97 200 0.98
 125  0.243  0.720  0.089- 201 0.93 222 0.98
 126  0.266  0.259  0.931- 202 1.01 204 1.03
 127  0.449  0.201  0.996- 205 0.97 206 0.99
 128  0.568  0.419  0.242- 207 0.95 209 0.95
 129  0.711  0.106  0.817- 210 0.93 208 1.03
 130  0.445  0.825  0.224- 213 1.00 212 1.01
 131  0.907  0.540  0.897- 214 0.99 218 1.01
 132  0.960  0.570  0.232- 215 0.96 217 0.97
 133  0.031  0.146  0.236- 216 0.98 219 1.00
 134  0.291  0.472  0.244- 220 0.97 221 0.97
 135  0.273  0.621  0.771- 236 0.96 226 0.97
 136  0.994  0.229  0.133- 225 0.95 223 0.98
 137  0.417  0.436  0.143- 227 1.00 224 1.00
 138  0.542  0.057  0.120- 229 0.94 228 0.99
 139  0.373  0.729  0.920- 231 0.94 233 0.97
 140  0.565  0.530  0.890- 232 0.96 234 0.97
 141  0.229  0.379  0.059- 211 0.91 235 0.97
 142  0.085  0.826  0.974- 238 0.92 237 0.95
 143  0.132  0.025  0.908- 240 0.97 239 0.98
 144  0.644  0.505  0.107- 241 1.00 242 1.02
 145  0.882  0.481  0.138- 243 0.99 244 1.01
 146  0.609  0.098  0.233- 246 0.97 245 1.00
 147  0.802  0.364  0.740-  97 0.99
 148  0.909  0.361  0.775-  97 0.92
 149  0.765  0.839  0.056-  98 0.98
 150  0.897  0.932  0.057-  98 1.02
 151  0.946  0.381  0.985- 111 0.99
 152  0.156  0.960  0.758-  99 0.98
 153  0.498  0.250  0.757- 100 0.95
 154  0.535  0.400  0.778- 100 0.99
 155  0.647  0.381  0.911- 101 1.00
 156  0.672  0.217  0.904- 101 1.00
 157  0.674  0.723  0.980- 104 1.00
 158  0.260  0.425  0.829- 102 0.94
 159  0.752  0.083  0.196- 109 0.97
 160  0.963  0.671  0.052- 103 0.97
 161  0.890  0.807  0.962- 107 0.97
 162  0.591  0.588  0.988- 104 0.98
 163  0.618  0.679  0.788- 105 0.96
 164  0.405  0.752  0.778- 106 1.03
 165  0.432  0.915  0.763- 106 0.95
 166  0.254  0.043  0.176- 116 1.00
 167  0.833  0.698  0.926- 107 1.01
 168  0.006  0.597  0.792- 119 0.92
 169  0.830  0.045  0.858- 108 0.94
 170  0.863  0.923  0.889- 108 0.97
 171  0.362  0.312  0.821- 102 0.96
 172  0.715  0.050  0.146- 109 1.00
 173  0.267  0.979  0.869- 110 0.97
 174  0.354  0.912  0.834- 110 0.98
 175  0.973  0.540  0.085- 103 0.97
 176  0.839  0.291  0.956- 111 1.00
 177  0.513  0.997  0.894- 112 0.97
 178  0.308  0.869  0.047- 113 1.00
 179  0.226  0.002  0.055- 113 0.99
 180  0.011  0.163  0.064- 114 0.96
 181  0.969  0.143  0.016- 114 0.96
 182  0.114  0.265  0.791- 115 0.97
 183  0.082  0.332  0.743- 115 1.04
 184  0.607  0.936  0.933- 112 0.98
 185  0.339  0.193  0.168- 116 0.93
 186  0.184  0.404  0.952- 117 0.96
 187  0.089  0.535  0.937- 117 0.93
 188  0.707  0.541  0.784- 105 0.93
 189  0.607  0.695  0.087- 118 1.03
 190  0.562  0.750  0.042- 118 1.01
 191  0.922  0.708  0.815- 119 0.96
 192  0.812  0.811  0.742- 120 0.99
 193  0.565  0.334  0.005- 121 1.02
 194  0.640  0.771  0.205- 122 1.01
 195  0.715  0.383  0.003- 121 0.96
 196  0.793  0.899  0.784- 120 0.98
 197  0.644  0.602  0.210- 122 0.97
 198  0.987  0.927  0.234- 123 0.96
 199  0.894  0.896  0.195- 123 0.95
 200  0.105  0.871  0.185- 124 0.98
 201  0.318  0.664  0.097- 125 0.93
 202  0.273  0.292  0.899- 126 1.01
 203  0.199  0.828  0.146- 124 0.97
 204  0.213  0.163  0.923- 126 1.03
 205  0.409  0.125  0.015- 127 0.97
 206  0.388  0.188  0.971- 127 0.99
 207  0.485  0.456  0.233- 128 0.95
 208  0.717  0.216  0.805- 129 1.03
 209  0.570  0.327  0.225- 128 0.95
 210  0.625  0.084  0.825- 129 0.93
 211  0.274  0.317  0.040- 141 0.91
 212  0.358  0.836  0.209- 130 1.01
 213  0.426  0.847  0.256- 130 1.00
 214  0.858  0.444  0.891- 131 0.99
 215  0.866  0.579  0.234- 132 0.96
 216  0.126  0.154  0.230- 133 0.98
 217  0.979  0.677  0.229- 132 0.97
 218  0.949  0.554  0.867- 131 1.01
 219  0.007  0.242  0.252- 133 1.00
 220  0.284  0.526  0.216- 134 0.97
 221  0.277  0.366  0.236- 134 0.97
 222  0.176  0.659  0.074- 125 0.98
 223  0.084  0.208  0.142- 136 0.98
 224  0.367  0.412  0.115- 137 1.00
 225  0.942  0.158  0.148- 136 0.95
 226  0.195  0.683  0.777- 135 0.97
 227  0.507  0.442  0.130- 137 1.00
 228  0.548  0.973  0.098- 138 0.99
 229  0.512  0.142  0.104- 138 0.94
 230  0.053  0.937  0.800-  99 1.00
 231  0.374  0.808  0.899- 139 0.94
 232  0.592  0.534  0.859- 140 0.96
 233  0.451  0.707  0.937- 139 0.97
 234  0.477  0.569  0.890- 140 0.97
 235  0.176  0.443  0.039- 141 0.97
 236  0.277  0.578  0.742- 135 0.96
 237  0.071  0.872  0.002- 142 0.95
 238  0.128  0.736  0.980- 142 0.92
 239  0.046  0.022  0.893- 143 0.98
 240  0.134  0.938  0.928- 143 0.97
 241  0.648  0.449  0.078- 144 1.00
 242  0.730  0.478  0.122- 144 1.02
 243  0.874  0.549  0.164- 145 0.99
 244  0.925  0.383  0.148- 145 1.01
 245  0.616  0.077  0.265- 146 1.00
 246  0.541  0.032  0.220- 146 0.97
 
  LATTYP: Found a simple orthorhombic cell.
 ALAT       =     8.7818242399
 B/A-ratio  =     1.1547005384
 C/A-ratio  =     3.4310783653
  
  Lattice vectors:
  
 A1 = (   0.0000000000,  -8.7818242399,   0.0000000000)
 A2 = (  10.1403771778,   0.0000000000,   0.0000000000)
 A3 = (   0.0000000000,   0.0000000000,  30.1311271579)


Analysis of symmetry for initial positions (statically):
=====================================================================
 Subroutine PRICEL returns:
 Original cell was already a primitive cell.
 

 Routine SETGRP: Setting up the symmetry group for a 
 simple orthorhombic supercell.


 Subroutine GETGRP returns: Found  1 space group operations
 (whereof  1 operations were pure point group operations)
 out of a pool of  8 trial point group operations.


The static configuration has the point symmetry C_1 .


Analysis of symmetry for dynamics (positions and initial velocities):
=====================================================================
 Subroutine PRICEL returns:
 Original cell was already a primitive cell.
 

 Routine SETGRP: Setting up the symmetry group for a 
 simple orthorhombic supercell.


 Subroutine GETGRP returns: Found  1 space group operations
 (whereof  1 operations were pure point group operations)
 out of a pool of  8 trial point group operations.


The dynamic configuration has the point symmetry C_1 .


 Subroutine INISYM returns: Found  1 space group operations
 (whereof  1 operations are pure point group operations),
 and found     1 'primitive' translations


----------------------------------------------------------------------------------------

                                     Primitive cell                                     

  volume of cell :    2683.2073

  direct lattice vectors                    reciprocal lattice vectors
    10.140377178  0.000000000  0.000000000     0.098615661  0.000000000  0.000000000
     0.000000000  8.781824240  0.000000000     0.000000000  0.113871557  0.000000000
     0.000000000  0.000000000 30.131127158     0.000000000  0.000000000  0.033188271

  length of vectors
    10.140377178  8.781824240 30.131127158     0.098615661  0.113871557  0.033188271

  position of ions in fractional coordinates (direct lattice)
     0.700541989  0.134666781  0.329318912
     0.938706700  0.130510469  0.328014281
     0.185075956  0.119378386  0.331112738
     0.446861090  0.120405507  0.327920026
     0.830421774  0.388660705  0.326165694
     0.064940582  0.375458437  0.331431677
     0.311811873  0.365340949  0.330350735
     0.579933063  0.379778724  0.325605476
     0.951901476  0.631620475  0.331792765
     0.191235490  0.622379798  0.329831670
     0.435216553  0.623618721  0.330795790
     0.704154281  0.617075661  0.328837018
     0.072853503  0.874719169  0.328904058
     0.315227919  0.870770103  0.329925261
     0.571332792  0.866554578  0.329858553
     0.832114018  0.870478592  0.330121404
     0.558745489  0.217481009  0.398289116
     0.808212540  0.217892086  0.399168605
     0.062274311  0.221130593  0.399613328
     0.301697851  0.203909797  0.398461695
     0.686151992  0.465372557  0.392570777
     0.944972739  0.459819041  0.399530357
     0.185028620  0.469836322  0.398713926
     0.428857815  0.462532600  0.396294501
     0.825100472  0.705618768  0.397791292
     0.073620832  0.710167937  0.397655220
     0.311985436  0.726646290  0.397044556
     0.577244800  0.705987712  0.400725135
     0.935858680  0.949157006  0.397187265
     0.181111606  0.972597466  0.401342437
     0.430494835  0.964501198  0.396493631
     0.688002022  0.973530074  0.395949343
     0.562499787  0.041666628  0.465651349
     0.812500349  0.041666628  0.465651349
     0.062500042  0.041666628  0.465651349
     0.312500210  0.041666628  0.465651349
     0.687500068  0.291667190  0.465651349
     0.937499645  0.291667190  0.465651349
     0.187499929  0.291667190  0.465651349
     0.437500492  0.291667190  0.465651349
     0.812500349  0.541666500  0.465651349
     0.062500042  0.541666500  0.465651349
     0.312500210  0.541666500  0.465651349
     0.562499787  0.541666500  0.465651349
     0.937499645  0.791666949  0.465651349
     0.187499929  0.791666949  0.465651349
     0.437500492  0.791666949  0.465651349
     0.687500068  0.791666949  0.465651349
     0.687500068  0.125000224  0.534347750
     0.937499645  0.125000224  0.534347750
     0.187499929  0.125000224  0.534347750
     0.437500492  0.125000224  0.534347750
     0.812500349  0.374999534  0.534347750
     0.062500042  0.374999534  0.534347750
     0.312500210  0.374999534  0.534347750
     0.562499787  0.374999534  0.534347750
     0.937499645  0.624999983  0.534347750
     0.187499929  0.624999983  0.534347750
     0.437500492  0.624999983  0.534347750
     0.687500068  0.624999983  0.534347750
     0.062500042  0.875000432  0.534347750
     0.312500210  0.875000432  0.534347750
     0.562499787  0.875000432  0.534347750
     0.812500349  0.875000432  0.534347750
     0.548658093  0.200764665  0.604265480
     0.798609347  0.203869942  0.612439751
     0.061673248  0.213268900  0.602722225
     0.301890151  0.199569013  0.607607538
     0.673502561  0.449843893  0.601646925
     0.914878198  0.463039329  0.602788601
     0.168008543  0.458260139  0.600037294
     0.420169775  0.448308904  0.603266513
     0.794442836  0.708585122  0.603930278
     0.045508761  0.717212031  0.602904760
     0.293322423  0.715716898  0.602370429
     0.544368311  0.708475805  0.603999973
     0.928727782  0.962970764  0.602788601
     0.176790268  0.961595196  0.602015315
     0.434015414  0.964044573  0.600286206
     0.681143303  0.952873773  0.611291436
     0.528510913  0.038860263  0.672049203
     0.810500424  0.045239462  0.678517597
     0.039257909  0.044149597  0.671382119
     0.279150366  0.047387876  0.669712749
     0.665084728  0.294771329  0.677711122
     0.924569159  0.290169779  0.671179671
     0.178294157  0.295324745  0.676021839
     0.427991970  0.302688818  0.672414274
     0.785673931  0.560669385  0.675998607
     0.041708311  0.549812871  0.671126569
     0.297147724  0.539037206  0.667884075
     0.541961103  0.572780764  0.670041313
     0.912389139  0.794694793  0.673243981
     0.161360862  0.797981127  0.669666285
     0.413837664  0.796755869  0.672537071
     0.658527773  0.811132153  0.682669450
     0.818277255  0.364371902  0.772576475
     0.858594296  0.826873757  0.049097732
     0.143803329  0.965201508  0.790395257
     0.491330836  0.301934988  0.784869410
     0.724004627  0.308991609  0.911618734
     0.302595253  0.345646863  0.844083922
     0.017978818  0.583921957  0.060059486
     0.577612637  0.698138545  0.984918349
     0.635480307  0.579000429  0.799714524
     0.448057298  0.852289888  0.787836442
     0.815676760  0.797810319  0.941879799
     0.903692224  0.986769920  0.866290194
     0.789228040  0.050910151  0.167800560
     0.360228218  0.960656894  0.863197047
     0.882207816  0.295718740  0.986242561
     0.603239889  0.989681615  0.904400285
     0.305373256  0.977718270  0.036453996
     0.989322175  0.086314413  0.042679452
     0.079056823  0.355319113  0.777176369
     0.273596332  0.150543892  0.185446099
     0.131431995  0.488278959  0.960833621
     0.576983469  0.795067153  0.072196436
     0.992480152  0.638747696  0.819902949
     0.854685171  0.824985766  0.771341871
     0.632074122  0.410412450  0.016556898
     0.705890903  0.684098182  0.204164948
     0.970130581  0.860942988  0.209613798
     0.196630753  0.873441530  0.175220129
     0.243105356  0.720268344  0.089202106
     0.266243548  0.259047544  0.930897801
     0.449171655  0.200763526  0.995742609
     0.568382211  0.419031388  0.241610610
     0.711461701  0.105935051  0.816627266
     0.445097842  0.825087112  0.224376936
     0.906997821  0.540124679  0.896581129
     0.959721698  0.570251677  0.231782567
     0.031011174  0.146242963  0.235858087
     0.290911270  0.471539840  0.244414355
     0.273004638  0.620987149  0.770996713
     0.994051582  0.229454604  0.132681396
     0.417092967  0.435894627  0.142978388
     0.541895030  0.057184702  0.119785429
     0.372648860  0.728959021  0.920164714
     0.565421769  0.529676964  0.889624867
     0.229130530  0.378967958  0.058779746
     0.085471771  0.825814751  0.973607786
     0.131877738  0.025400531  0.908187067
     0.644486875  0.505374496  0.106536008
     0.882318265  0.480954741  0.137803341
     0.608836327  0.097846071  0.232830321
     0.802472123  0.363726250  0.740304200
     0.908592436  0.361157308  0.775138609
     0.764986338  0.839203769  0.056199690
     0.896580062  0.931695941  0.056755261
     0.945948048  0.380736383  0.984682712
     0.155985322  0.960037433  0.758298881
     0.497904556  0.249597343  0.757190393
     0.535364701  0.400192478  0.777926424
     0.647333909  0.380873029  0.911280214
     0.671887237  0.216967449  0.903544028
     0.673500589  0.722502504  0.980414700
     0.260215173  0.425440079  0.828956709
     0.751902012  0.083215170  0.196051079
     0.963358643  0.671377591  0.052381047
     0.889679924  0.806694578  0.962011804
     0.591026339  0.587790174  0.987941800
     0.617611149  0.679267751  0.788364135
     0.405343897  0.751720806  0.778135510
     0.431844883  0.915000093  0.762600081
     0.254118753  0.043172123  0.176026936
     0.832910833  0.697919912  0.926052313
     0.006195314  0.596631162  0.792436336
     0.830048020  0.045240828  0.857551723
     0.863248955  0.923254643  0.888917957
     0.361786345  0.311760965  0.821416334
     0.714528648  0.049705618  0.146248761
     0.267157715  0.978708296  0.869293733
     0.354272818  0.911890261  0.834014601
     0.972757702  0.540134928  0.085195950
     0.839329726  0.291036342  0.956339929
     0.513009517  0.997385026  0.893863009
     0.307965862  0.869385425  0.046526968
     0.226449170  0.002402872  0.054702567
     0.011081442  0.162799888  0.064364668
     0.969337711  0.143330129  0.016303539
     0.114297524  0.264954062  0.791444007
     0.081865890  0.332360330  0.743447130
     0.607058287  0.935721301  0.932869184
     0.339361144  0.193374401  0.167851670
     0.184238709  0.403686057  0.951564137
     0.088772536  0.534533586  0.937060862
     0.706684759  0.540791966  0.783817342
     0.607422179  0.695453454  0.087140451
     0.562193092  0.749557247  0.041903842
     0.921793128  0.708480360  0.814539724
     0.811760732  0.811265382  0.742205888
     0.565079572  0.333618610  0.005236512
     0.640076783  0.770633733  0.205349437
     0.714598666  0.383465885  0.003425096
     0.793274240  0.899029608  0.784354992
     0.644452360  0.602237059  0.209807949
     0.987379446  0.927076172  0.234183075
     0.893519032  0.896260251  0.194729522
     0.104783085  0.870724555  0.185274516
     0.317895473  0.664466726  0.097213091
     0.273430658  0.292360668  0.899073568
     0.199011335  0.828014750  0.145919201
     0.213253409  0.162953614  0.923370701
     0.408566657  0.125208609  0.014975178
     0.387679860  0.187877821  0.970597610
     0.484605248  0.456301549  0.232675663
     0.716908244  0.216103164  0.805213820
     0.570169127  0.326525551  0.225057296
     0.624915611  0.083815729  0.824881189
     0.273524342  0.316754233  0.039649695
     0.358017255  0.835568989  0.208586953
     0.425990072  0.847489063  0.256274847
     0.857960197  0.444224331  0.891178078
     0.865688706  0.579063058  0.234365942
     0.125848376  0.153995339  0.230152359
     0.978948219  0.677459471  0.228588528
     0.948937089  0.554001067  0.866562338
     0.006818356  0.241885961  0.252186052
     0.284323744  0.526132142  0.216469831
     0.277369367  0.366076559  0.235797020
     0.175938229  0.659416522  0.074163173
     0.084162155  0.207521803  0.142133415
     0.367152024  0.412365347  0.115114180
     0.941693769  0.158016144  0.148243044
     0.195367486  0.683117748  0.776618806
     0.507120190  0.441589343  0.129815256
     0.548122609  0.972885561  0.097880507
     0.512279761  0.142281372  0.103809923
     0.052748334  0.937274509  0.800136015
     0.374360828  0.807571389  0.898947453
     0.592375401  0.534335449  0.859005369
     0.451338241  0.707157173  0.937432571
     0.476505944  0.568905715  0.889565128
     0.175757762  0.442689343  0.039298563
     0.277385146  0.578345667  0.741724658
     0.071386990  0.872305092  0.001643450
     0.128367020  0.735695662  0.979551805
     0.045635383  0.021620451  0.893375142
     0.133923026  0.937643453  0.927821248
     0.648378249  0.449047930  0.077737218
     0.730401825  0.478142113  0.122313380
     0.874370829  0.548653659  0.164101727
     0.924833449  0.383126547  0.148489964
     0.616041188  0.076615972  0.265267873
     0.541414772  0.032399874  0.219992766

  ion indices of the primitive-cell ions
   primitive index   ion index
                 1           1
                 2           2
                 3           3
                 4           4
                 5           5
                 6           6
                 7           7
                 8           8
                 9           9
                10          10
                11          11
                12          12
                13          13
                14          14
                15          15
                16          16
                17          17
                18          18
                19          19
                20          20
                21          21
                22          22
                23          23
                24          24
                25          25
                26          26
                27          27
                28          28
                29          29
                30          30
                31          31
                32          32
                33          33
                34          34
                35          35
                36          36
                37          37
                38          38
                39          39
                40          40
                41          41
                42          42
                43          43
                44          44
                45          45
                46          46
                47          47
                48          48
                49          49
                50          50
                51          51
                52          52
                53          53
                54          54
                55          55
                56          56
                57          57
                58          58
                59          59
                60          60
                61          61
                62          62
                63          63
                64          64
                65          65
                66          66
                67          67
                68          68
                69          69
                70          70
                71          71
                72          72
                73          73
                74          74
                75          75
                76          76
                77          77
                78          78
                79          79
                80          80
                81          81
                82          82
                83          83
                84          84
                85          85
                86          86
                87          87
                88          88
                89          89
                90          90
                91          91
                92          92
                93          93
                94          94
                95          95
                96          96
                97          97
                98          98
                99          99
               100         100
               101         101
               102         102
               103         103
               104         104
               105         105
               106         106
               107         107
               108         108
               109         109
               110         110
               111         111
               112         112
               113         113
               114         114
               115         115
               116         116
               117         117
               118         118
               119         119
               120         120
               121         121
               122         122
               123         123
               124         124
               125         125
               126         126
               127         127
               128         128
               129         129
               130         130
               131         131
               132         132
               133         133
               134         134
               135         135
               136         136
               137         137
               138         138
               139         139
               140         140
               141         141
               142         142
               143         143
               144         144
               145         145
               146         146
               147         147
               148         148
               149         149
               150         150
               151         151
               152         152
               153         153
               154         154
               155         155
               156         156
               157         157
               158         158
               159         159
               160         160
               161         161
               162         162
               163         163
               164         164
               165         165
               166         166
               167         167
               168         168
               169         169
               170         170
               171         171
               172         172
               173         173
               174         174
               175         175
               176         176
               177         177
               178         178
               179         179
               180         180
               181         181
               182         182
               183         183
               184         184
               185         185
               186         186
               187         187
               188         188
               189         189
               190         190
               191         191
               192         192
               193         193
               194         194
               195         195
               196         196
               197         197
               198         198
               199         199
               200         200
               201         201
               202         202
               203         203
               204         204
               205         205
               206         206
               207         207
               208         208
               209         209
               210         210
               211         211
               212         212
               213         213
               214         214
               215         215
               216         216
               217         217
               218         218
               219         219
               220         220
               221         221
               222         222
               223         223
               224         224
               225         225
               226         226
               227         227
               228         228
               229         229
               230         230
               231         231
               232         232
               233         233
               234         234
               235         235
               236         236
               237         237
               238         238
               239         239
               240         240
               241         241
               242         242
               243         243
               244         244
               245         245
               246         246

----------------------------------------------------------------------------------------

 
 
 KPOINTS: KPOINTS created by Atomic Simulation Env

Automatic generation of k-mesh.
 Grid dimensions read from file:
 generate k-points for:    2    2    1

 Generating k-lattice:

  Cartesian coordinates                     Fractional coordinates (reciprocal lattice)
     0.049307831  0.000000000  0.000000000     0.500000000  0.000000000  0.000000000
     0.000000000  0.056935779  0.000000000     0.000000000  0.500000000  0.000000000
     0.000000000  0.000000000  0.033188271     0.000000000  0.000000000  1.000000000

  Length of vectors
     0.049307831  0.056935779  0.033188271

  Shift w.r.t. Gamma in fractional coordinates (k-lattice)
     0.500000000  0.500000000  0.000000000

 
 Subroutine IBZKPT returns following result:
 ===========================================
 
 Found      2 irreducible k-points:
 
 Following reciprocal coordinates:
            Coordinates               Weight
  0.250000  0.250000  0.000000      2.000000
 -0.250000  0.250000  0.000000      2.000000
 
 Following cartesian coordinates:
            Coordinates               Weight
  0.024654  0.028468  0.000000      2.000000
 -0.024654  0.028468  0.000000      2.000000
 


--------------------------------------------------------------------------------------------------------




 Dimension of arrays:
   k-points           NKPTS =      2   k-points in BZ     NKDIM =      2   number of bands    NBANDS=    874
   number of dos      NEDOS =    301   number of ions     NIONS =    246
   non local maximal  LDIM  =      6   non local SUM 2l+1 LMDIM =     18
   total plane-waves  NPLWV = ******
   max r-space proj   IRMAX =   8746   max aug-charges    IRDMAX=  24571
   dimension x,y,z NGX =    96 NGY =   84 NGZ =  280
   dimension x,y,z NGXF=   192 NGYF=  168 NGZF=  560
   support grid    NGXF=   192 NGYF=  168 NGZF=  560
   ions per type =              96  50 100
   NGX,Y,Z   is equivalent  to a cutoff of  15.74, 15.90, 15.45 a.u.
   NGXF,Y,Z  is equivalent  to a cutoff of  31.48, 31.80, 30.90 a.u.

 SYSTEM =  unknown system                          
 POSCAR =  Cu O  H                                 

 Startparameter for this run:
   NWRITE =      2    write-flag & timer
   PREC   = accura    normal or accurate (medium, high low for compatibility)
   ISTART =      0    job   : 0-new  1-cont  2-samecut
   ICHARG =      2    charge: 1-file 2-atom 10-const
   ISPIN  =      1    spin polarized calculation?
   LNONCOLLINEAR =      F non collinear calculations
   LSORBIT =      F    spin-orbit coupling
   INIWAV =      1    electr: 0-lowe 1-rand  2-diag
   LASPH  =      T    aspherical Exc in radial PAW
 Electronic Relaxation 1
   ENCUT  =  800.0 eV  58.80 Ry    7.67 a.u.  23.39 20.25 69.49*2*pi/ulx,y,z
   ENINI  =  800.0     initial cutoff
   ENAUG  = 1000.0 eV  augmentation charge cutoff
   NELM   =    160;   NELMIN=  2; NELMDL= -5     # of ELM steps 
   EDIFF  = 0.1E-06   stopping-criterion for ELM
   LREAL  =      T    real-space projection
   NLSPLINE    = F    spline interpolate recip. space projectors
   LCOMPAT=      F    compatible to vasp.4.4
   GGA_COMPAT  = T    GGA compatible to vasp.4.4-vasp.4.6
   LMAXPAW     = -100 max onsite density
   LMAXMIX     =    2 max onsite mixed and CHGCAR
   VOSKOWN=      0    Vosko Wilk Nusair interpolation
   ROPT   =   -0.00025  -0.00025  -0.00025
 Ionic relaxation
   EDIFFG = 0.1E-05   stopping-criterion for IOM
   NSW    =      0    number of steps for IOM
   NBLOCK =      1;   KBLOCK =      1    inner block; outer block 
   IBRION =     -1    ionic relax: 0-MD 1-quasi-New 2-CG
   NFREE  =      0    steps in history (QN), initial steepest desc. (CG)
   ISIF   =      2    stress and relaxation
   IWAVPR =     10    prediction:  0-non 1-charg 2-wave 3-comb
   ISYM   =      2    0-nonsym 1-usesym 2-fastsym
   LCORR  =      T    Harris-Foulkes like correction to forces

   POTIM  = 0.5000    time-step for ionic-motion
   TEIN   =    0.0    initial temperature
   TEBEG  =    0.0;   TEEND  =   0.0 temperature during run
   SMASS  =  -3.00    Nose mass-parameter (am)
   estimated Nose-frequenzy (Omega)   =  0.10E-29 period in steps = 0.13E+47 mass=  -0.235E-26a.u.
   SCALEE = 1.0000    scale energy and forces
   NPACO  =    256;   APACO  = 10.0  distance and # of slots for P.C.
   PSTRESS=    0.0 pullay stress

  Mass of Ions in am
   POMASS =  63.55 16.00  1.00
  Ionic Valenz
   ZVAL   =  11.00  6.00  1.00
  Atomic Wigner-Seitz radii
   RWIGS  =  -1.00 -1.00 -1.00
  virtual crystal weights 
   VCA    =   1.00  1.00  1.00
   NELECT =    1456.0000    total number of electrons
   NUPDOWN=      -1.0000    fix difference up-down

 DOS related values:
   EMIN   =  10.00;   EMAX   =-10.00  energy-range for DOS
   EFERMI =   0.00;   METHOD = LEGACY      
   ISMEAR =     0;   SIGMA  =   0.10  broadening in eV -4-tet -1-fermi 0-gaus

 Electronic relaxation 2 (details)
   IALGO  =     68    algorithm
   LDIAG  =      T    sub-space diagonalisation (order eigenvalues)
   LSUBROT=      F    optimize rotation matrix (better conditioning)
   TURBO    =      0    0=normal 1=particle mesh
   IRESTART =      0    0=no restart 2=restart with 2 vectors
   NREBOOT  =      0    no. of reboots
   NMIN     =      0    reboot dimension
   EREF     =   0.00    reference energy to select bands
   IMIX   =      4    mixing-type and parameters
     AMIX     =   0.40;   BMIX     =  1.00
     AMIX_MAG =   1.60;   BMIX_MAG =  1.00
     AMIN     =   0.10
     WC   =   100.;   INIMIX=   1;  MIXPRE=   1;  MAXMIX= -45

 Intra band minimization:
   WEIMIN = 0.0000     energy-eigenvalue tresh-hold
   EBREAK =  0.29E-10  absolut break condition
   DEPER  =   0.30     relativ break condition  

   TIME   =   0.40     timestep for ELM

  volume/ion in A,a.u.               =      10.91        73.61
  Fermi-wavevector in a.u.,A,eV,Ry     =   1.335295  2.523342 24.259360  1.783013
  Thomas-Fermi vector in A             =   2.464010
 
 Write flags
   LWAVE        =      T    write WAVECAR
   LDOWNSAMPLE  =      F    k-point downsampling of WAVECAR
   LCHARG       =      T    write CHGCAR
   LVTOT        =      F    write LOCPOT, total local potential
   LVHAR        =      T    write LOCPOT, Hartree potential only
   WRT_POTENTIAL=  hartree ionic  ! write potential to hdf5 file
   LELF         =      F    write electronic localiz. function (ELF)
   LORBIT       =      0    0 simple, 1 ext, 2 COOP (PROOUT), +10 PAW based schemes


 Dipole corrections
   LMONO      =      F    monopole corrections only (constant potential shift)
   LDIPOL     =      F    correct potential (dipole corrections)
   IDIPOL     =      0    1-x, 2-y, 3-z, 4-all directions 
   EPSILON    =  1.0000000 bulk dielectric constant
   LVACPOTAV  =      F  vacuum potentials using an averaging scheme for the charge density
   VACPOTFLAT =  0.1000000 required flatness to determine vacuum potential
 Exchange correlation treatment:
   METAGGA = R2SCAN    functional components
   XC_C    = 1    coefficients multiplying the functional components
   LIBXC   =     F    Libxc                    
   VOSKOWN =     0    Vosko Wilk Nusair interpolation
   LHFCALC =     F    Hartree Fock is set to
   LHFONE  =     F    Hartree Fock one center treatment
   AEXX    =    0.0000 exact exchange contribution

 Parameters of functionals:
   R2SCAN:
     No parameter
 
 Accuracy and mixing parameters for tau-dependent meta-GGA functionals:
   LMAXTAU = 6
   LMIXTAU = T
 
 Van der Waals corrections
   IVDW    =     0    specifies the selected vdW correction

 Linear response parameters
   LEPSILON=     F    determine dielectric tensor
   LRPA    =     F    only Hartree local field effects (RPA)
   LNABLA  =     F    use nabla operator in PAW spheres
   LVEL    =     F    velocity operator in full k-point grid
   CSHIFT  =0.1000    complex shift for real part using Kramers Kronig
   OMEGAMAX=  -1.0    maximum frequency
   DEG_THRESHOLD= 0.2000000E-02 threshold for treating states as degnerate
   RTIME   =   -0.100 relaxation time in fs
  (WPLASMAI=    0.000 imaginary part of plasma frequency in eV, 0.658/RTIME)
   DFIELD  = 0.0000000 0.0000000 0.0000000 field for delta impulse in time
 
  Optional k-point grid parameters
   LKPOINTS_OPT  =     F    use optional k-point grid
   KPOINTS_OPT_MODE=     1    mode for optional k-point grid
 
 Orbital magnetization related:
   ORBITALMAG=     F  switch on orbital magnetization
   LCHIMAG   =     F  perturbation theory with respect to B field
   DQ        =  0.001000  dq finite difference perturbation B field
   LLRAUG    =     F  two centre corrections for induced B field
   LBONE     =     F  B-component reconstruction in AE one-centre
   LVGVCALC  =     T  calculate vGv susceptibility
   LVGVAPPL  =     F  apply vGv susceptibility instead of pGv for G=0

 Random number generation:
   RANDOM_GENERATOR = DEFAULT
   PCG_SEED         = not used


--------------------------------------------------------------------------------------------------------


 Static calculation
 charge density and potential will be updated during run
 non-spin polarized calculation
 RMM-DIIS sequential band-by-band and
  variant of blocked Davidson during initial phase
 perform sub-space diagonalisation
    before iterative eigenvector-optimisation
 modified Broyden-mixing scheme, WC =      100.0
 initial mixing is a Kerker type mixing with AMIX =  0.4000 and BMIX =      1.0000
 Hartree-type preconditioning will be used
 using additional bands           146
 real space projection scheme for non local part
 use partial core corrections
 calculate Harris-corrections to forces 
   (improved forces if not selfconsistent)
 use gradient corrections 
 use of overlap-Matrix (Vanderbilt PP)
 Gauss-broadening in eV      SIGMA  =   0.10


--------------------------------------------------------------------------------------------------------


  energy-cutoff  :      800.00
  volume of cell :     2683.21
      direct lattice vectors                 reciprocal lattice vectors
    10.140377178  0.000000000  0.000000000     0.098615661  0.000000000  0.000000000
     0.000000000  8.781824240  0.000000000     0.000000000  0.113871557  0.000000000
     0.000000000  0.000000000 30.131127158     0.000000000  0.000000000  0.033188271

  length of vectors
    10.140377178  8.781824240 30.131127158     0.098615661  0.113871557  0.033188271


 
 k-points in units of 2pi/SCALE and weight: KPOINTS created by Atomic Simulation Env
   0.02465392  0.02846789  0.00000000       0.500
  -0.02465392  0.02846789  0.00000000       0.500
 
 k-points in reciprocal lattice and weights: KPOINTS created by Atomic Simulation Env
   0.25000000  0.25000000  0.00000000       0.500
  -0.25000000  0.25000000  0.00000000       0.500
 
 position of ions in fractional coordinates (direct lattice) 
   0.70054199  0.13466678  0.32931891
   0.93870670  0.13051047  0.32801428
   0.18507596  0.11937839  0.33111274
   0.44686109  0.12040551  0.32792003
   0.83042177  0.38866070  0.32616569
   0.06494058  0.37545844  0.33143168
   0.31181187  0.36534095  0.33035073
   0.57993306  0.37977872  0.32560548
   0.95190148  0.63162048  0.33179277
   0.19123549  0.62237980  0.32983167
   0.43521655  0.62361872  0.33079579
   0.70415428  0.61707566  0.32883702
   0.07285350  0.87471917  0.32890406
   0.31522792  0.87077010  0.32992526
   0.57133279  0.86655458  0.32985855
   0.83211402  0.87047859  0.33012140
   0.55874549  0.21748101  0.39828912
   0.80821254  0.21789209  0.39916861
   0.06227431  0.22113059  0.39961333
   0.30169785  0.20390980  0.39846170
   0.68615199  0.46537256  0.39257078
   0.94497274  0.45981904  0.39953036
   0.18502862  0.46983632  0.39871393
   0.42885782  0.46253260  0.39629450
   0.82510047  0.70561877  0.39779129
   0.07362083  0.71016794  0.39765522
   0.31198544  0.72664629  0.39704456
   0.57724480  0.70598771  0.40072514
   0.93585868  0.94915701  0.39718727
   0.18111161  0.97259747  0.40134244
   0.43049484  0.96450120  0.39649363
   0.68800202  0.97353007  0.39594934
   0.56249979  0.04166663  0.46565135
   0.81250035  0.04166663  0.46565135
   0.06250004  0.04166663  0.46565135
   0.31250021  0.04166663  0.46565135
   0.68750007  0.29166719  0.46565135
   0.93749964  0.29166719  0.46565135
   0.18749993  0.29166719  0.46565135
   0.43750049  0.29166719  0.46565135
   0.81250035  0.54166650  0.46565135
   0.06250004  0.54166650  0.46565135
   0.31250021  0.54166650  0.46565135
   0.56249979  0.54166650  0.46565135
   0.93749964  0.79166695  0.46565135
   0.18749993  0.79166695  0.46565135
   0.43750049  0.79166695  0.46565135
   0.68750007  0.79166695  0.46565135
   0.68750007  0.12500022  0.53434775
   0.93749964  0.12500022  0.53434775
   0.18749993  0.12500022  0.53434775
   0.43750049  0.12500022  0.53434775
   0.81250035  0.37499953  0.53434775
   0.06250004  0.37499953  0.53434775
   0.31250021  0.37499953  0.53434775
   0.56249979  0.37499953  0.53434775
   0.93749964  0.62499998  0.53434775
   0.18749993  0.62499998  0.53434775
   0.43750049  0.62499998  0.53434775
   0.68750007  0.62499998  0.53434775
   0.06250004  0.87500043  0.53434775
   0.31250021  0.87500043  0.53434775
   0.56249979  0.87500043  0.53434775
   0.81250035  0.87500043  0.53434775
   0.54865809  0.20076466  0.60426548
   0.79860935  0.20386994  0.61243975
   0.06167325  0.21326890  0.60272222
   0.30189015  0.19956901  0.60760754
   0.67350256  0.44984389  0.60164692
   0.91487820  0.46303933  0.60278860
   0.16800854  0.45826014  0.60003729
   0.42016978  0.44830890  0.60326651
   0.79444284  0.70858512  0.60393028
   0.04550876  0.71721203  0.60290476
   0.29332242  0.71571690  0.60237043
   0.54436831  0.70847581  0.60399997
   0.92872778  0.96297076  0.60278860
   0.17679027  0.96159520  0.60201531
   0.43401541  0.96404457  0.60028621
   0.68114330  0.95287377  0.61129144
   0.52851091  0.03886026  0.67204920
   0.81050042  0.04523946  0.67851760
   0.03925791  0.04414960  0.67138212
   0.27915037  0.04738788  0.66971275
   0.66508473  0.29477133  0.67771112
   0.92456916  0.29016978  0.67117967
   0.17829416  0.29532474  0.67602184
   0.42799197  0.30268882  0.67241427
   0.78567393  0.56066939  0.67599861
   0.04170831  0.54981287  0.67112657
   0.29714772  0.53903721  0.66788408
   0.54196110  0.57278076  0.67004131
   0.91238914  0.79469479  0.67324398
   0.16136086  0.79798113  0.66966629
   0.41383766  0.79675587  0.67253707
   0.65852777  0.81113215  0.68266945
   0.81827725  0.36437190  0.77257647
   0.85859430  0.82687376  0.04909773
   0.14380333  0.96520151  0.79039526
   0.49133084  0.30193499  0.78486941
   0.72400463  0.30899161  0.91161873
   0.30259525  0.34564686  0.84408392
   0.01797882  0.58392196  0.06005949
   0.57761264  0.69813855  0.98491835
   0.63548031  0.57900043  0.79971452
   0.44805730  0.85228989  0.78783644
   0.81567676  0.79781032  0.94187980
   0.90369222  0.98676992  0.86629019
   0.78922804  0.05091015  0.16780056
   0.36022822  0.96065689  0.86319705
   0.88220782  0.29571874  0.98624256
   0.60323989  0.98968162  0.90440029
   0.30537326  0.97771827  0.03645400
   0.98932217  0.08631441  0.04267945
   0.07905682  0.35531911  0.77717637
   0.27359633  0.15054389  0.18544610
   0.13143199  0.48827896  0.96083362
   0.57698347  0.79506715  0.07219644
   0.99248015  0.63874770  0.81990295
   0.85468517  0.82498577  0.77134187
   0.63207412  0.41041245  0.01655690
   0.70589090  0.68409818  0.20416495
   0.97013058  0.86094299  0.20961380
   0.19663075  0.87344153  0.17522013
   0.24310536  0.72026834  0.08920211
   0.26624355  0.25904754  0.93089780
   0.44917166  0.20076353  0.99574261
   0.56838221  0.41903139  0.24161061
   0.71146170  0.10593505  0.81662727
   0.44509784  0.82508711  0.22437694
   0.90699782  0.54012468  0.89658113
   0.95972170  0.57025168  0.23178257
   0.03101117  0.14624296  0.23585809
   0.29091127  0.47153984  0.24441435
   0.27300464  0.62098715  0.77099671
   0.99405158  0.22945460  0.13268140
   0.41709297  0.43589463  0.14297839
   0.54189503  0.05718470  0.11978543
   0.37264886  0.72895902  0.92016471
   0.56542177  0.52967696  0.88962487
   0.22913053  0.37896796  0.05877975
   0.08547177  0.82581475  0.97360779
   0.13187774  0.02540053  0.90818707
   0.64448688  0.50537450  0.10653601
   0.88231827  0.48095474  0.13780334
   0.60883633  0.09784607  0.23283032
   0.80247212  0.36372625  0.74030420
   0.90859244  0.36115731  0.77513861
   0.76498634  0.83920377  0.05619969
   0.89658006  0.93169594  0.05675526
   0.94594805  0.38073638  0.98468271
   0.15598532  0.96003743  0.75829888
   0.49790456  0.24959734  0.75719039
   0.53536470  0.40019248  0.77792642
   0.64733391  0.38087303  0.91128021
   0.67188724  0.21696745  0.90354403
   0.67350059  0.72250250  0.98041470
   0.26021517  0.42544008  0.82895671
   0.75190201  0.08321517  0.19605108
   0.96335864  0.67137759  0.05238105
   0.88967992  0.80669458  0.96201180
   0.59102634  0.58779017  0.98794180
   0.61761115  0.67926775  0.78836414
   0.40534390  0.75172081  0.77813551
   0.43184488  0.91500009  0.76260008
   0.25411875  0.04317212  0.17602694
   0.83291083  0.69791991  0.92605231
   0.00619531  0.59663116  0.79243634
   0.83004802  0.04524083  0.85755172
   0.86324895  0.92325464  0.88891796
   0.36178635  0.31176097  0.82141633
   0.71452865  0.04970562  0.14624876
   0.26715772  0.97870830  0.86929373
   0.35427282  0.91189026  0.83401460
   0.97275770  0.54013493  0.08519595
   0.83932973  0.29103634  0.95633993
   0.51300952  0.99738503  0.89386301
   0.30796586  0.86938543  0.04652697
   0.22644917  0.00240287  0.05470257
   0.01108144  0.16279989  0.06436467
   0.96933771  0.14333013  0.01630354
   0.11429752  0.26495406  0.79144401
   0.08186589  0.33236033  0.74344713
   0.60705829  0.93572130  0.93286918
   0.33936114  0.19337440  0.16785167
   0.18423871  0.40368606  0.95156414
   0.08877254  0.53453359  0.93706086
   0.70668476  0.54079197  0.78381734
   0.60742218  0.69545345  0.08714045
   0.56219309  0.74955725  0.04190384
   0.92179313  0.70848036  0.81453972
   0.81176073  0.81126538  0.74220589
   0.56507957  0.33361861  0.00523651
   0.64007678  0.77063373  0.20534944
   0.71459867  0.38346588  0.00342510
   0.79327424  0.89902961  0.78435499
   0.64445236  0.60223706  0.20980795
   0.98737945  0.92707617  0.23418307
   0.89351903  0.89626025  0.19472952
   0.10478308  0.87072455  0.18527452
   0.31789547  0.66446673  0.09721309
   0.27343066  0.29236067  0.89907357
   0.19901134  0.82801475  0.14591920
   0.21325341  0.16295361  0.92337070
   0.40856666  0.12520861  0.01497518
   0.38767986  0.18787782  0.97059761
   0.48460525  0.45630155  0.23267566
   0.71690824  0.21610316  0.80521382
   0.57016913  0.32652555  0.22505730
   0.62491561  0.08381573  0.82488119
   0.27352434  0.31675423  0.03964969
   0.35801725  0.83556899  0.20858695
   0.42599007  0.84748906  0.25627485
   0.85796020  0.44422433  0.89117808
   0.86568871  0.57906306  0.23436594
   0.12584838  0.15399534  0.23015236
   0.97894822  0.67745947  0.22858853
   0.94893709  0.55400107  0.86656234
   0.00681836  0.24188596  0.25218605
   0.28432374  0.52613214  0.21646983
   0.27736937  0.36607656  0.23579702
   0.17593823  0.65941652  0.07416317
   0.08416216  0.20752180  0.14213341
   0.36715202  0.41236535  0.11511418
   0.94169377  0.15801614  0.14824304
   0.19536749  0.68311775  0.77661881
   0.50712019  0.44158934  0.12981526
   0.54812261  0.97288556  0.09788051
   0.51227976  0.14228137  0.10380992
   0.05274833  0.93727451  0.80013601
   0.37436083  0.80757139  0.89894745
   0.59237540  0.53433545  0.85900537
   0.45133824  0.70715717  0.93743257
   0.47650594  0.56890572  0.88956513
   0.17575776  0.44268934  0.03929856
   0.27738515  0.57834567  0.74172466
   0.07138699  0.87230509  0.00164345
   0.12836702  0.73569566  0.97955181
   0.04563538  0.02162045  0.89337514
   0.13392303  0.93764345  0.92782125
   0.64837825  0.44904793  0.07773722
   0.73040183  0.47814211  0.12231338
   0.87437083  0.54865366  0.16410173
   0.92483345  0.38312655  0.14848996
   0.61604119  0.07661597  0.26526787
   0.54141477  0.03239987  0.21999277
 
 position of ions in cartesian coordinates  (Angst):
   7.10376000  1.18262000  9.92275000
   9.51884000  1.14612000  9.88344000
   1.87674000  1.04836000  9.97680000
   4.53134000  1.05738000  9.88060000
   8.42079000  3.41315000  9.82774000
   0.65852200  3.29721000  9.98641000
   3.16189000  3.20836000  9.95384000
   5.88074000  3.33515000  9.81086000
   9.65264000  5.54678000  9.99729000
   1.93920000  5.46563000  9.93820000
   4.41326000  5.47651000  9.96725000
   7.14039000  5.41905000  9.90823000
   0.73876200  7.68163000  9.91025000
   3.19653000  7.64695000  9.94102000
   5.79353000  7.60993000  9.93901000
   8.43795000  7.64439000  9.94693000
   5.66589000  1.90988000 12.00090000
   8.19558000  1.91349000 12.02740000
   0.63148500  1.94193000 12.04080000
   3.05933000  1.79070000 12.00610000
   6.95784000  4.08682000 11.82860000
   9.58238000  4.03805000 12.03830000
   1.87626000  4.12602000 12.01370000
   4.34878000  4.06188000 11.94080000
   8.36683000  6.19662000 11.98590000
   0.74654300  6.23657000 11.98180000
   3.16365000  6.38128000 11.96340000
   5.85348000  6.19986000 12.07430000
   9.48996000  8.33533000 11.96770000
   1.83654000  8.54118000 12.09290000
[...]
      0.63377      0.36591     14.03060        -0.300064      0.087010      0.397518
      3.16887      0.36591     14.03060         0.135412     -0.005364      0.369877
      6.97151      2.56137     14.03060        -0.074975      0.148376      0.108311
      9.50660      2.56137     14.03060        -0.113884     -0.004480      0.381179
      1.90132      2.56137     14.03060         0.064783      0.098508      0.297116
      4.43642      2.56137     14.03060        -0.106456      0.063726      0.050911
      8.23906      4.75682     14.03060        -0.149546     -0.097561     -0.039297
      0.63377      4.75682     14.03060         0.024926      0.091190      0.405887
      3.16887      4.75682     14.03060         0.039248      0.094345      0.064739
      5.70396      4.75682     14.03060        -0.017349     -0.248406      0.006542
      9.50660      6.95228     14.03060         0.100515     -0.048239      0.177224
      1.90132      6.95228     14.03060         0.040794     -0.022223      0.263419
      4.43642      6.95228     14.03060         0.073560      0.015296     -0.001459
      6.97151      6.95228     14.03060         0.266694      0.167199      0.171126
      6.97151      1.09773     16.10050         0.031324     -0.010426      0.507230
      9.50660      1.09773     16.10050        -0.134910      0.123489      0.194609
      1.90132      1.09773     16.10050         0.031442      0.117739      0.034177
      4.43642      1.09773     16.10050        -0.128689      0.196168     -0.129067
      8.23906      3.29318     16.10050        -0.137245     -0.210016      0.061586
      0.63377      3.29318     16.10050        -0.318377     -0.040375     -0.304381
      3.16887      3.29318     16.10050        -0.142577     -0.105690      0.019814
      5.70396      3.29318     16.10050        -0.204122     -0.100747     -0.068946
      9.50660      5.48864     16.10050        -0.122506      0.030986      0.007990
      1.90132      5.48864     16.10050        -0.137503      0.080289     -0.156337
      4.43642      5.48864     16.10050        -0.122288     -0.043417      0.118017
      6.97151      5.48864     16.10050        -0.133383      0.012820      0.115556
      0.63377      7.68410     16.10050        -0.100462      0.035356     -0.102803
      3.16887      7.68410     16.10050        -0.073827      0.038145     -0.149590
      5.70396      7.68410     16.10050         0.160464      0.010187      0.182369
      8.23906      7.68410     16.10050        -0.125266      0.047025      0.211737
      5.56360      1.76308     18.20720         0.506928      0.462698      0.062497
      8.09820      1.79035     18.45350        -0.167204      0.039514     -1.207967
      0.62539      1.87289     18.16070        -0.665542     -0.140493      0.252490
      3.06128      1.75258     18.30790         0.170643      0.814988     -0.870754
      6.82957      3.95045     18.12830        -0.109530      0.268151      0.679944
      9.27721      4.06633     18.16270         0.439838     -0.184625      0.377716
      1.70367      4.02436     18.07980         0.353168      0.301011      0.792072
      4.26068      3.93697     18.17710         0.358129      0.484050     -0.146491
      8.05595      6.22267     18.19710         0.079282      0.004283      0.139921
      0.46148      6.29843     18.16620        -0.050273     -0.454772      0.032243
      2.97440      6.28530     18.15010         0.393711     -0.308171      0.174683
      5.52010      6.22171     18.19920         0.238972      0.237110     -0.370607
      9.41765      8.45664     18.16270        -0.235164     -0.046578      0.117423
      1.79272      8.44456     18.13940        -0.076286     -0.155830     -0.072413
      4.40108      8.46607     18.08730        -0.434423     -0.696880      0.434886
      6.90705      8.36797     18.41890        -0.068475      0.187666     -0.476307
      5.35930      0.34126     20.24960         0.295156      0.582328      0.171057
      8.21878      0.39728     20.44450        -1.129482     -0.062237     -0.052641
      0.39809      0.38771     20.22950         0.635332      0.073641     -0.030661
      2.83069      0.41615     20.17920         0.715298     -0.522027      0.711695
      6.74421      2.58863     20.42020         0.279809      0.096410     -0.617304
      9.37548      2.54822     20.22340         0.316407      0.786230      0.331843
      1.80797      2.59349     20.36930        -0.437262      0.248836     -0.510051
      4.34000      2.65816     20.26060        -0.218448     -0.192188      0.092999
      7.96703      4.92370     20.36860         0.100811     -0.576629     -0.484477
      0.42294      4.82836     20.22180         0.062440     -0.327098     -0.221801
      3.01319      4.73373     20.12410        -0.340256      0.366391     -0.071647
      5.49569      5.03006     20.18910         0.202213     -1.378076      0.402233
      9.25197      6.97887     20.28560         0.150866      0.042655     -0.344433
      1.63626      7.00773     20.17780         0.251453     -0.169785      0.143468
      4.19647      6.99697     20.26430        -0.468490      0.282045     -0.247164
      6.67772      7.12322     20.56960         0.380236     -0.268739     -0.569940
      8.29764      3.19985     23.27860        -3.815994      0.355658     -1.102497
      8.70647      7.26146      1.47937         0.054541      1.800957      0.705317
      1.45822      8.47623     23.81550        -0.534519     -0.104333      0.283451
      4.98228      2.65154     23.64900         0.726659      1.068645     -0.511312
      7.34168      2.71351     27.46810        -1.714916     -0.789677     -0.416819
      3.06843      3.03541     25.43320        -0.314234     -0.536725      0.590656
      0.18231      5.12790      1.80966         0.442535     -0.012436     -0.372908
      5.85721      6.13093     29.67670         1.632372     -0.243607      0.071322
      6.44401      5.08468     24.09630        -1.937409      0.573302      0.584998
      4.54347      7.48466     23.73840        -0.121357     -2.171617     -0.719074
      8.27127      7.00623     28.37990         0.006231     -1.267385     -0.605238
      9.16378      8.66564     26.10230         0.923829     -1.105193      0.438387
      8.00307      0.44708      5.05602        -0.095193     -0.162380     -0.441400
      3.65285      8.43632     26.00910        -0.679860     -0.225221     -0.758434
      8.94592      2.59695     29.71660         0.104856      0.733452     -0.743695
      6.11708      8.69121     27.25060         0.493669      0.199306      0.304864
      3.09660      8.58615      1.09840        -1.546148     -1.055396      1.650556
     10.03210      0.75800      1.28598         0.689845     -0.527353      0.664274
      0.80167      3.12035     23.41720         0.026892     -0.450495     -2.327464
      2.77437      1.32205      5.58770        -1.656289     -0.740590      1.309173
      1.33277      4.28798     28.95100        -0.204079      0.702702      2.842447
      5.85083      6.98214      2.17536         0.577854     -2.531689     -0.069099
     10.06412      5.60937     24.70460         0.386926      0.769673      2.168056
      8.66683      7.24488     23.24140        -1.268531      0.766179     -0.616202
      6.40947      3.60417      0.49888        -1.629803     -0.326273     -0.012095
      7.15800      6.00763      6.15172        -1.527091      1.508427      0.302226
      9.83749      7.56065      6.31590         0.895440     -1.074643      0.705046
      1.99391      7.67041      5.27958         0.998324     -0.083937     -0.134214
      2.46518      6.32527      2.68776        -0.997605      1.838614     -0.057569
      2.69981      2.27491     28.04900        -0.447059     -0.975952     -1.830802
      4.55477      1.76307     30.00285        -0.904851     -0.476115     -0.192193
      5.76361      3.67986      7.28000         0.762757      0.315871      0.562290
      7.21449      0.93030     24.60590         1.904296      2.049152     -1.579216
      4.51346      7.24577      6.76073        -1.204093      0.438702      0.537682
      9.19730      4.74328     27.01500         0.137958     -1.037451     -1.409742
      9.73194      5.00785      6.98387         0.091668     -0.715205      0.660424
      0.31446      1.28428      7.10667        -0.111267      1.248041      1.074056
      2.94995      4.14098      7.36448         0.068967     -0.216057     -0.232233
      2.76837      5.45340     23.23100         0.634939      0.298508      1.045081
     10.08006      2.01503      3.99784         1.668566      0.180963     -0.353338
      4.22948      3.82795      4.30810        -0.661168     -0.810788     -1.512131
      5.49502      0.50219      3.60927         0.652730     -1.386919      0.508225
      3.77880      6.40159     27.72560        -0.963490     -2.383229      1.302408
      5.73359      4.65153     26.80540         0.067282     -0.153084     -0.031243
      2.32347      3.32803      1.77110        -1.496524      1.793435      1.766371
      0.86672      7.25216     29.33590        -1.305793      1.647389     -0.875648
      1.33729      0.22306     27.36470         0.022558     -0.385971     -0.577113
      6.53534      4.43811      3.21005         0.625002     -1.011725     -0.358272
      8.94704      4.22366      4.15217        -0.080814      0.302460      1.779864
      6.17383      0.85927      7.01544         0.226423      0.350905      0.624956
      8.13737      3.19418     22.30620         0.072979     -0.127858      0.600605
      9.21347      3.17162     23.35580         3.379780     -0.196731      0.657648
      7.75725      7.36974      1.69336         0.191741     -0.415532     -0.087640
      9.09166      8.18199      1.71010        -0.410538     -1.453249     -0.837169
      9.59227      3.34356     29.66960        -0.324040     -0.617108     -0.195781
      1.58175      8.43088     22.84840        -0.799425     -0.123086      0.596268
      5.04894      2.19192     22.81500        -0.089520     -0.569139     -0.469540
      5.42880      3.51442     23.43980        -0.492707     -0.477673      0.773285
      6.56421      3.34476     27.45790         0.865584      0.302688     -0.007941
      6.81319      1.90537     27.22480         1.106594      0.085971      0.448095
      6.82955      6.34489     29.54100        -1.114790      0.520208     -0.347997
      2.63868      3.73614     24.97740        -0.806522      1.232163     -0.292916
      7.62457      0.73078      5.90724        -0.321957     -0.025016     -0.416912
      9.76882      5.89592      1.57830        -0.316397      0.138205      0.014754
      9.02169      7.08425     28.98650         0.184072      0.002956     -0.031221
      5.99323      5.16187     29.76780        -0.570952     -0.175917      0.324997
      6.26281      5.96521     23.75430        -0.130475      0.259947      0.169216
      4.11034      6.60148     23.44610         0.350332      1.410693      0.733358
      4.37907      8.03537     22.97800        -0.057431      0.535320     -0.447669
      2.57686      0.37913      5.30389         0.242250      0.516921      0.112070
      8.44603      6.12901     27.90300        -0.117758      1.112864      0.487380
      0.06282      5.23951     23.87700         0.455709     -1.470303     -2.248422
      8.41700      0.39730     25.83900        -1.038964      1.096551     -0.768255
      8.75367      8.10786     26.78410         0.101962     -0.372455      0.433724
      3.66865      2.73783     24.75020         0.753295     -0.488223     -0.134577
      7.24559      0.43651      4.40664         0.396835      0.100381      0.684271
      2.70908      8.59484     26.19280        -0.041185      0.464073      0.645783
      3.59246      8.00806     25.12980         0.673789      0.318338      0.307061
      9.86413      4.74337      2.56705        -0.027138     -0.093362      0.338109
      8.51112      2.55583     28.81560         0.366711      0.048806      0.772185
      5.20211      8.75886     26.93310        -0.108366     -0.342745      0.406041
      3.12289      7.63479      1.40191         0.578201      0.818016     -0.482818
      2.29628      0.02110      1.64825         0.878772      0.412395     -0.997885
      0.11237      1.42968      1.93938        -0.083413      0.141686      0.253524
      9.82945      1.25870      0.49124        -0.531228      0.493379     -0.654216
      1.15902      2.32678     23.84710         0.068820     -0.067405      0.026566
      0.83015      2.91873     22.40090         0.145661      0.277551      2.254669
      6.15580      8.21734     28.10840        -0.283914      0.402089     -0.912046
      3.44125      1.69818      5.05756         1.381913      0.741140     -1.167639
      1.86825      3.54510     28.67170         0.557611     -0.867986     -0.834831
      0.90019      4.69418     28.23470        -0.822578      0.363061     -1.653260
      7.16605      4.74914     23.61730         1.999676     -0.832283     -0.786805
      6.15949      6.10735      2.62564        -0.455001      1.636302     -0.226688
      5.70085      6.58248      1.26261         0.013280      0.966432      0.284571
      9.34733      6.22175     24.54300        -0.390678      0.453126      0.009536
      8.23156      7.12439     22.36350         0.466534     -0.237040      0.369875
      5.73012      2.92978      0.15778         0.763791      0.590218      0.499150
      6.49062      6.76757      6.18741         1.389059     -1.144769     -0.190178
      7.24630      3.36753      0.10320         0.912747     -0.520106     -0.192071
      8.04410      7.89512     23.63350         0.459646      0.158663      0.379000
      6.53499      5.28874      6.32175         0.182510     -0.498851      0.004862
     10.01240      8.14142      7.05620        -0.206300      0.745761      0.151993
      9.06062      7.87080      5.86742        -1.192396      0.720754     -0.761256
      1.06254      7.64655      5.58253        -0.316702     -0.126111      0.004026
      3.22358      5.83523      2.92914         1.067674     -1.187242      0.134226
      2.77269      2.56746     27.09010         0.591569      0.132156      1.143885
      2.01805      7.27148      4.39671         0.125169     -0.331896     -0.456933
      2.16247      1.43103     27.82220         0.241146      0.844673      0.822865
      4.14302      1.09956      0.45122         0.467122     -0.257380      0.399764
      3.93122      1.64991     29.24520         0.567088      0.912975     -0.230805
      4.91408      4.00716      7.01078        -1.238503      0.722234      0.125900
      7.26972      1.89778     24.26200        -0.254244     -2.290779      0.794869
      5.78173      2.86749      6.78123         0.535985     -1.150457     -0.172504
      6.33688      0.73606     24.85460        -1.674721     -0.042781      0.542631
      2.77364      2.78168      1.19469         1.744162     -1.858512     -2.062269
      3.63043      7.33782      6.28496         0.956136     -0.062126      0.533012
      4.31970      7.44250      7.72185         0.090603     -0.330322     -1.246201
      8.70004      3.90110     26.85220         0.095464      0.710479      0.713804
      8.77841      5.08523      7.06171        -0.609390     -0.139222     -0.024529
      1.27615      1.35236      6.93475        -0.283221      0.155208     -0.236924
      9.92690      5.94933      6.88763         0.317050      0.477769     -0.349533
      9.62258      4.86514     26.11050        -0.396646      0.345538      1.166726
      0.06914      2.12420      7.59865         0.471047     -1.157372     -0.922580
      2.88315      4.62040      6.52248        -0.100515     -0.012299      0.058424
      2.81263      3.21482      7.10483        -0.025550      0.132924     -0.163741
      1.78408      5.79088      2.23462        -0.205750     -0.507057      0.310038
      0.85344      1.82242      4.28264        -0.314429      0.292300     -0.064766
      3.72306      3.62132      3.46852         0.107702      0.345602      1.234795
      9.54913      1.38767      4.46673        -1.093156     -1.109355      0.584241
      1.98110      5.99902     23.40040         0.144617     -0.218000     -0.400959
      5.14239      3.87796      3.91148         0.057366      0.496268      0.441348
      5.55817      8.54371      2.94925        -0.164549      0.182343      0.368765
      5.19471      1.24949      3.12791        -0.320068      1.033404     -0.744483
      0.53489      8.23098     24.10900         1.212085      0.297150     -0.924630
      3.79616      7.09195     27.08630         0.855835      1.359968     -0.752266
      6.00691      4.69244     25.88280         0.194546      0.078361     -0.133236
      4.57674      6.21013     28.24590         0.084411      0.959459     -0.228869
      4.83195      4.99603     26.80360        -0.361987      0.110129      0.284257
      1.78225      3.88762      1.18411        -0.053264     -0.100652      0.302020
      2.81279      5.07893     22.34900        -0.636199      0.023493     -0.300442
      0.72389      7.66043      0.04952        -0.055524      0.638002      0.651102
      1.30169      6.46075     29.51500         1.404030     -2.527318      0.293978
      0.46276      0.18987     26.91840        -0.046030      0.228038     -0.014614
      1.35803      8.23422     27.95630        -0.076371     -0.040298      0.433143
      6.57480      3.94346      2.34231        -0.009127      0.566293      0.385832
      7.40655      4.19896      3.68544        -0.662882      0.484870     -0.728530
      8.86645      4.81818      4.94457         0.287712     -0.694125     -1.037671
      9.37816      3.36455      4.47417        -0.198370      0.965494     -0.784563
      6.24689      0.67283      7.99282        -0.414167     -0.096204     -1.134833
      5.49015      0.28453      6.62863        -0.032606     -0.280577      0.300369
 -----------------------------------------------------------------------------------
    total drift:                                0.006162     -0.006058     -0.030158


--------------------------------------------------------------------------------------------------------



  FREE ENERGIE OF THE ION-ELECTRON SYSTEM (eV)
  ---------------------------------------------------
  free  energy   TOTEN  =     -1809.82660861 eV

  energy  without entropy=    -1809.62199574  energy(sigma->0) =    -1809.72430218
 


--------------------------------------------------------------------------------------------------------


    POTLOK:  cpu time     11.9477: real time     11.9675


--------------------------------------------------------------------------------------------------------


 writing wavefunctions
     LOOP+:  cpu time   1401.1834: real time   1403.4980
    4ORBIT:  cpu time      0.0000: real time      0.0000

 total amount of memory used by VASP MPI-rank0  3314126. kBytes
=======================================================================

   base      :      30000. kBytes
   nonlr-proj:     189047. kBytes
   fftplans  :     312780. kBytes
   grid      :     814785. kBytes
   one-center:       3825. kBytes
   wavefun   :    1963689. kBytes
 
  
  
 General timing and accounting informations for this job:
 ========================================================
  
                  Total CPU time used (sec):     1469.048
                            User time (sec):     1438.813
                          System time (sec):       30.235
                         Elapsed time (sec):     1472.174
  
                   Maximum memory used (kb):     5023496.
                   Average memory used (kb):          N/A
  
                          Minor page faults:      7218986
                          Major page faults:         4008
                 Voluntary context switches:        34712
