246
Lattice="10.140377178 0.0 0.0 0.0 8.78182424 0.0 0.0 0.0 30.131127158" Properties=species:S:1:pos:R:3:initial_charges:R:1:forces:R:3 NELECT0=1456.0 NELECT=1457.1624025133924 U_vs_SHE=-0.7863811570875963 stress="0.008479389739950449 0.0015658573264833399 -0.00040088588964635585 0.0015658573264833399 0.007894984757475748 0.0023879077689260464 -0.00040088588964635585 0.0023879077689260464 0.006774402933542045" free_energy=-1807.70598725 energy=-1810.0417275392274 pbc="T T T"
Cu       7.10376000       1.18262000       9.92275000      -0.07555000      -0.24226600      -0.21833500       0.30459800
Cu       9.51884000       1.14612000       9.88344000       0.00805500       0.27749900      -0.18314000       0.41826000
Cu       1.87674000       1.04836000       9.97680000      -0.04212600       0.27777400       0.20672200      -0.11869500
Cu       4.53134000       1.05738000       9.88060000      -0.03587500      -0.12999800       0.11778500       0.30514500
Cu       8.42079000       3.41315000       9.82774000      -0.00381300      -0.30223600      -0.65141400       0.39839000
Cu       0.65852000       3.29721000       9.98641000      -0.04103600       0.37080400      -0.03001300      -0.09200000
Cu       3.16189000       3.20836000       9.95384000       0.01955300       0.19880900       0.12119700       0.08503000
Cu       5.88074000       3.33515000       9.81086000       0.09761500      -0.70388700      -0.23604700      -0.28699900
Cu       9.65264000       5.54678000       9.99729000       0.01774700      -0.14437800      -0.34294700      -0.47097500
Cu       1.93920000       5.46563000       9.93820000       0.01651000       0.28054500       0.01976800      -0.14508500
Cu       4.41326000       5.47651000       9.96725000       0.00867200       0.52463500       0.09915100       0.11067800
Cu       7.14039000       5.41905000       9.90823000      -0.01249200      -0.35916500       1.09640400      -0.17285300
Cu       0.73876000       7.68163000       9.91025000      -0.05580500      -0.02002800       0.12463800       0.25981200
Cu       3.19653000       7.64695000       9.94102000      -0.08171700       0.09004100       0.43321500      -0.21346400
Cu       5.79353000       7.60993000       9.93901000      -0.04545000       0.02457300       0.16561100       0.28203800
Cu       8.43795000       7.64439000       9.94693000      -0.04031400      -0.89341000       0.30329100      -0.18743300
Cu       5.66589000       1.90988000      12.00090000       0.00847900      -0.08497600      -0.02476700      -0.52254600
Cu       8.19558000       1.91349000      12.02740000       0.02779300       0.44328400      -0.07150300      -0.49091100
Cu       0.63149000       1.94193000      12.04080000       0.02139200      -0.37094600      -0.66765000      -0.45357800
Cu       3.05933000       1.79070000      12.00610000       0.01882600       0.84708900       0.72446000      -0.33606400
Cu       6.95784000       4.08682000      11.82860000       0.02621800       0.20990600      -0.58049000       0.83514200
Cu       9.58238000       4.03805000      12.03830000       0.01644300      -0.63534700       0.20500000      -0.38523900
Cu       1.87626000       4.12602000      12.01370000       0.02282700       0.58054700      -0.46000900      -0.28362100
Cu       4.34878000       4.06188000      11.94080000       0.01407800       0.43045100      -0.07658600       0.03851700
Cu       8.36683000       6.19662000      11.98590000       0.01719800      -0.56901300       0.04858100      -0.03384400
Cu       0.74654000       6.23657000      11.98180000       0.02887800      -0.47252900       0.34823300       0.07935300
Cu       3.16365000       6.38128000      11.96340000       0.02169900       0.36167400      -0.77250400       0.21904400
Cu       5.85348000       6.19986000      12.07430000       0.01474400      -0.70446900       0.45063400      -0.89971700
Cu       9.48996000       8.33533000      11.96770000       0.02106900       0.29430400       0.92574200       0.04521800
Cu       1.83654000       8.54118000      12.09290000       0.01105800       0.01702900      -0.75339900      -0.80946000
Cu       4.36538000       8.47008000      11.94680000       0.01416300       0.71443900      -0.00967800       0.08529700
Cu       6.97660000       8.54937000      11.93040000       0.02074600      -0.07555900      -0.59939700       0.05002100
Cu       5.70396000       0.36591000      14.03060000       0.03018700      -0.01487300      -0.01055900      -0.07193700
Cu       8.23906000       0.36591000      14.03060000       0.00427100       0.02264400      -0.02982100       0.01999200
Cu       0.63377000       0.36591000      14.03060000      -0.02208900      -0.30195600       0.09360500       0.40649500
Cu       3.16887000       0.36591000      14.03060000       0.00255400       0.13804600      -0.00020600       0.37890100
Cu       6.97151000       2.56137000      14.03060000       0.02511800      -0.07583100       0.15062100       0.11415000
Cu       9.50660000       2.56137000      14.03060000      -0.03104400      -0.11218400      -0.00023100       0.38752200
Cu       1.90132000       2.56137000      14.03060000       0.00967100       0.06246000       0.10517500       0.30465500
Cu       4.43642000       2.56137000      14.03060000      -0.00708300      -0.10565500       0.07151500       0.05340600
Cu       8.23906000       4.75682000      14.03060000       0.03078000      -0.14999400      -0.09094900      -0.03064600
Cu       0.63377000       4.75682000      14.03060000      -0.02215400       0.02883300       0.09597100       0.41501000
Cu       3.16887000       4.75682000      14.03060000       0.02172100       0.04108800       0.09676500       0.06982500
Cu       5.70396000       4.75682000      14.03060000      -0.02060700      -0.02052000      -0.24802500       0.01279900
Cu       9.50660000       6.95228000      14.03060000       0.00191600       0.10373300      -0.04675100       0.17746200
Cu       1.90132000       6.95228000      14.03060000       0.00219700       0.03880600      -0.02002500       0.26990000
Cu       4.43642000       6.95228000      14.03060000      -0.00088500       0.07486000       0.01856300       0.00708200
Cu       6.97151000       6.95228000      14.03060000      -0.00346900       0.26690600       0.16914800       0.18101200
Cu       6.97151000       1.09773000      16.10050000       0.03009200       0.03314000      -0.01358300       0.50113900
Cu       9.50660000       1.09773000      16.10050000      -0.00776400      -0.13552600       0.12420500       0.18658500
Cu       1.90132000       1.09773000      16.10050000       0.00178100       0.03040500       0.11467600       0.02361400
Cu       4.43642000       1.09773000      16.10050000      -0.02759700      -0.12943100       0.19427500      -0.13885200
Cu       8.23906000       3.29318000      16.10050000      -0.00682500      -0.13905700      -0.21288600       0.05524800
Cu       0.63377000       3.29318000      16.10050000      -0.01172900      -0.31781400      -0.04512100      -0.31060600
Cu       3.16887000       3.29318000      16.10050000      -0.00657800      -0.14235500      -0.11050700       0.01429500
Cu       5.70396000       3.29318000      16.10050000      -0.01371900      -0.20690300      -0.10364600      -0.07081400
Cu       9.50660000       5.48864000      16.10050000       0.00002000      -0.12500900       0.02815400      -0.00336800
Cu       1.90132000       5.48864000      16.10050000      -0.00454800      -0.13671800       0.07728500      -0.16091600
Cu       4.43642000       5.48864000      16.10050000       0.00018100      -0.12642200      -0.04549300       0.11004500
Cu       6.97151000       5.48864000      16.10050000       0.00396500      -0.13015100       0.01049200       0.10473700
Cu       0.63377000       7.68410000      16.10050000      -0.02460700      -0.10019200       0.02835200      -0.10659200
Cu       3.16887000       7.68410000      16.10050000      -0.00424500      -0.07272000       0.03188100      -0.15694000
Cu       5.70396000       7.68410000      16.10050000       0.03174100       0.16024900       0.00588400       0.18020700
Cu       8.23906000       7.68410000      16.10050000      -0.00261100      -0.12643800       0.04131400       0.20883000
Cu       5.56360000       1.76308000      18.20720000       0.00273900       0.51013400       0.46574300       0.06374800
Cu       8.09820000       1.79035000      18.45350000       0.01063800      -0.16508000       0.04185600      -1.21367800
Cu       0.62539000       1.87289000      18.16070000       0.02330800      -0.66915800      -0.13634000       0.25194900
Cu       3.06128000       1.75258000      18.30790000       0.02169400       0.17129600       0.81707100      -0.86925500
Cu       6.82957000       3.95045000      18.12830000       0.01214400      -0.10904800       0.27612900       0.67606100
Cu       9.27721000       4.06633000      18.16270000       0.00609100       0.44271800      -0.17713400       0.37213400
Cu       1.70367000       4.02436000      18.07980000       0.00816600       0.35649700       0.30995400       0.78900300
Cu       4.26068000       3.93697000      18.17710000       0.00183700       0.35915700       0.49386200      -0.14638600
Cu       8.05595000       6.22267000      18.19710000       0.01608400       0.07875900       0.00732600       0.13622400
Cu       0.46148000       6.29843000      18.16620000       0.01115100      -0.05064100      -0.45239700       0.03533600
Cu       2.97440000       6.28530000      18.15010000       0.00812500       0.39715300      -0.30545700       0.17674300
Cu       5.52010000       6.22171000      18.19920000       0.02124000       0.24210200       0.24065300      -0.37189000
Cu       9.41765000       8.45664000      18.16270000       0.00225800      -0.23577100      -0.03945300       0.11567200
Cu       1.79272000       8.44456000      18.13940000       0.02398200      -0.07593700      -0.14439500      -0.07061800
Cu       4.40108000       8.46607000      18.08730000       0.00333300      -0.43494500      -0.68974900       0.42816300
Cu       6.90705000       8.36797000      18.41890000       0.02471600      -0.07005700       0.19273200      -0.48811900
Cu       5.35930000       0.34126000      20.24960000      -0.06816200       0.29774500       0.58879700       0.18125500
Cu       8.21878000       0.39728000      20.44450000       0.00096000      -1.13872200      -0.05938100      -0.07839900
Cu       0.39809000       0.38771000      20.22950000      -0.03469800       0.64142900       0.07204500      -0.03628700
Cu       2.83069000       0.41615000      20.17920000      -0.07421200       0.71502000      -0.53000400       0.71983100
Cu       6.74421000       2.58863000      20.42020000      -0.04764500       0.28201500       0.10118100      -0.62207200
Cu       9.37548000       2.54822000      20.22340000      -0.07278700       0.31861700       0.79274300       0.32969200
Cu       1.80797000       2.59349000      20.36930000      -0.05594300      -0.44257500       0.25429100      -0.52277900
Cu       4.34000000       2.65816000      20.26060000      -0.05423500      -0.21467600      -0.19423900       0.08553500
Cu       7.96703000       4.92370000      20.36860000      -0.04629100       0.09773900      -0.58104900      -0.49192700
Cu       0.42294000       4.82836000      20.22180000      -0.05883600       0.06444500      -0.32887900      -0.22085600
Cu       3.01319000       4.73373000      20.12410000      -0.09183300      -0.34504600       0.36767500      -0.07381400
Cu       5.49569000       5.03006000      20.18910000      -0.05865700       0.20638200      -1.38174500       0.39910800
Cu       9.25197000       6.97887000      20.28560000      -0.02166300       0.14658000       0.03637100      -0.35938600
Cu       1.63626000       7.00773000      20.17780000      -0.05873600       0.25499000      -0.16481900       0.14582700
Cu       4.19647000       6.99697000      20.26430000      -0.02947400      -0.47615200       0.28633700      -0.25981200
Cu       6.67772000       7.12322000      20.56960000      -0.04173000       0.39391300      -0.26769800      -0.59005100
O        8.29764000       3.19985000      23.27860000      -1.34607600      -3.79806600       0.34698100      -0.89713700
O        8.70647000       7.26146000       1.47937000      -1.29739100       0.05155800       1.81633700       0.67759300
O        1.45822000       8.47623000      23.81550000      -1.30821700      -0.56514600      -0.11715400       0.43510200
O        4.98228000       2.65154000      23.64900000      -1.29523700       0.72539100       1.07253200      -0.34658200
O        7.34168000       2.71351000      27.46810000      -1.32352800      -1.69281800      -0.81901200      -0.32085100
O        3.06843000       3.03541000      25.43320000      -1.34825600      -0.33629400      -0.52441800       0.75248900
O        0.18231000       5.12790000       1.80966000      -1.34985200       0.43277900       0.00086200      -0.42090600
O        5.85721000       6.13093000      29.67670000      -1.26209800       1.66086500      -0.25739500       0.11533100
O        6.44401000       5.08468000      24.09630000      -1.34080600      -1.93088400       0.59753700       0.75293000
O        4.54347000       7.48466000      23.73840000      -1.29402000      -0.17547800      -2.13988400      -0.54401200
O        8.27127000       7.00623000      28.37990000      -1.30750700       0.00406900      -1.26913700      -0.52504600
O        9.16378000       8.66564000      26.10230000      -1.31270700       0.95668000      -1.12337100       0.60182400
O        8.00307000       0.44708000       5.05602000      -1.34912600      -0.10459800      -0.13855700      -0.64671500
O        3.65285000       8.43632000      26.00910000      -1.34865100      -0.71276700      -0.19646400      -0.60509200
O        8.94592000       2.59695000      29.71660000      -1.31582900       0.11104500       0.73370000      -0.71156800
O        6.11708000       8.69121000      27.25060000      -1.32894400       0.52206700       0.20527100       0.39858600
O        3.09660000       8.58615000       1.09840000      -1.24889800      -1.55797700      -1.04780200       1.63472500
O       10.03210000       0.75800000       1.28598000      -1.37092100       0.69000100      -0.52317700       0.62559500
O        0.80167000       3.12035000      23.41720000      -1.25364700       0.04415800      -0.47261500      -2.11442300
O        2.77437000       1.32205000       5.58770000      -1.39074700      -1.65134800      -0.73397500       1.13101900
O        1.33277000       4.28798000      28.95100000      -1.38359000      -0.21786700       0.70353200       2.87621100
O        5.85083000       6.98214000       2.17536000      -1.33201200       0.58148200      -2.53922500      -0.12686400
O       10.06412000       5.60937000      24.70460000      -1.34066100       0.37044600       0.72353300       2.32894800
O        8.66683000       7.24488000      23.24140000      -1.28814600      -1.26600100       0.77373500      -0.35300600
O        6.40947000       3.60417000       0.49888000      -1.32653000      -1.62847000      -0.34454800      -0.02765600
O        7.15800000       6.00763000       6.15172000      -1.28316400      -1.53195500       1.51862400       0.12161600
O        9.83749000       7.56065000       6.31590000      -1.33227200       0.89359700      -1.03035900       0.51357900
O        1.99391000       7.67041000       5.27958000      -1.36532900       1.02443000      -0.10345800      -0.31778600
O        2.46518000       6.32527000       2.68776000      -1.34715700      -0.99678200       1.81768400      -0.16073700
O        2.69981000       2.27491000      28.04900000      -1.35195000      -0.44571300      -0.99085200      -1.73320900
O        4.55477000       1.76307000      30.00285000      -1.34179000      -0.89812900      -0.48133400      -0.16302400
O        5.76361000       3.67986000       7.28000000      -1.30701500       0.76582400       0.34617300       0.33403500
O        7.21449000       0.93030000      24.60590000      -1.32324800       1.90419100       2.03520300      -1.38840600
O        4.51346000       7.24577000       6.76073000      -1.26668600      -1.25006700       0.44013600       0.31127100
O        9.19730000       4.74328000      27.01500000      -1.32775100       0.10877700      -1.05715500      -1.27391300
O        9.73194000       5.00785000       6.98387000      -1.31176500       0.06697800      -0.67015100       0.39185400
O        0.31446000       1.28428000       7.10667000      -1.26018800      -0.06798800       1.25102400       0.80595300
O        2.94995000       4.14098000       7.36448000      -1.28875600       0.07702900      -0.19689200      -0.41456700
O        2.76837000       5.45340000      23.23100000      -1.28743300       0.61318500       0.31409700       1.23422200
O       10.08006000       2.01503000       3.99784000      -1.28989500       1.68370100       0.17186500      -0.47207500
O        4.22948000       3.82795000       4.30810000      -1.32490700      -0.64482300      -0.79888700      -1.64625000
O        5.49502000       0.50219000       3.60927000      -1.30873800       0.63827600      -1.40393700       0.40351400
O        3.77880000       6.40159000      27.72560000      -1.41000300      -0.94103600      -2.36324600       1.40241900
O        5.73359000       4.65153000      26.80540000      -1.32132200       0.07937600      -0.17970900       0.05749100
O        2.32347000       3.32803000       1.77110000      -1.30925500      -1.50683800       1.79202900       1.72722000
O        0.86672000       7.25216000      29.33590000      -1.35729700      -1.31774700       1.64532000      -0.83047500
O        1.33729000       0.22306000      27.36470000      -1.35472200       0.01573400      -0.38429600      -0.46664400
O        6.53534000       4.43811000       3.21005000      -1.32709800       0.61448600      -0.99701300      -0.47751900
O        8.94704000       4.22366000       4.15217000      -1.29889200      -0.09084000       0.28103500       1.65031100
O        6.17383000       0.85927000       7.01544000      -1.30851600       0.23838800       0.32828800       0.35012300
H        8.13737000       3.19418000      22.30620000       0.58641700       0.05167000      -0.12983100       0.49139300
H        9.21347000       3.17162000      23.35580000       0.68814800       3.34717500      -0.20052000       0.60119100
H        7.75725000       7.36974000       1.69336000       0.63183200       0.18966700      -0.41923300      -0.06924700
H        9.09166000       8.18199000       1.71010000       0.64101600      -0.41371100      -1.46257400      -0.81892000
H        9.59227000       3.34356000      29.66960000       0.63971200      -0.31443300      -0.61549900      -0.20888400
H        1.58175000       8.43088000      22.84840000       0.62463800      -0.79761600      -0.11522700       0.52381400
H        5.04894000       2.19192000      22.81500000       0.60927500      -0.10370800      -0.55228300      -0.54428800
H        5.42880000       3.51442000      23.43980000       0.65374400      -0.51365100      -0.51239400       0.70711500
H        6.56421000       3.34476000      27.45790000       0.65731500       0.83686600       0.34303100      -0.05680500
H        6.81319000       1.90537000      27.22480000       0.66058800       1.11489700       0.08993200       0.40407100
H        6.82955000       6.34489000      29.54100000       0.62461400      -1.11387700       0.51899900      -0.36161900
H        2.63868000       3.73614000      24.97740000       0.65879600      -0.81497100       1.22549000      -0.35350300
H        7.62457000       0.73078000       5.90724000       0.67793000      -0.38635500      -0.01961700      -0.28231000
H        9.76882000       5.89592000       1.57830000       0.69108300      -0.30471500       0.12500000       0.02726100
H        9.02169000       7.08425000      28.98650000       0.64959100       0.17472800      -0.00168400      -0.05245700
H        5.99323000       5.16187000      29.76780000       0.63780300      -0.57464600      -0.15706400       0.30636700
H        6.26281000       5.96521000      23.75430000       0.66033800      -0.13339400       0.24514600       0.10229900
H        4.11034000       6.60148000      23.44610000       0.65073800       0.33729500       1.40086500       0.67126700
H        4.37907000       8.03537000      22.97800000       0.61501000      -0.03468700       0.51600600      -0.51889800
H        2.57686000       0.37913000       5.30389000       0.68467800       0.25893500       0.53716700       0.15934400
H        8.44603000       6.12901000      27.90300000       0.66110100      -0.10750800       1.08366700       0.43883000
H        0.06282000       5.23951000      23.87700000       0.64764200       0.46159800      -1.47739400      -2.28148800
H        8.41700000       0.39730000      25.83900000       0.66588500      -1.08185000       1.11791600      -0.86111500
H        8.75367000       8.10786000      26.78410000       0.64475600       0.11273000      -0.33871900       0.35726300
H        3.66865000       2.73783000      24.75020000       0.69015900       0.81277600      -0.49860900      -0.23435800
H        7.24559000       0.43651000       4.40664000       0.66822800       0.45188300       0.10130500       0.78298400
H        2.70908000       8.59484000      26.19280000       0.66453500       0.01444900       0.45052400       0.57948200
H        3.59246000       8.00806000      25.12980000       0.68072600       0.71767200       0.28655600       0.16343100
H        9.86413000       4.74337000       2.56705000       0.65530300      -0.04755700      -0.10767300       0.40642100
H        8.51112000       2.55583000      28.81560000       0.67582200       0.34047000       0.05274900       0.72317500
H        5.20211000       8.75886000      26.93310000       0.68038300      -0.14656800      -0.35785900       0.35077600
H        3.12289000       7.63479000       1.40191000       0.64686000       0.57371600       0.80811600      -0.46539400
H        2.29628000       0.02110000       1.64825000       0.59412900       0.89059600       0.40852900      -0.98123100
H        0.11237000       1.42968000       1.93938000       0.67392000      -0.08875100       0.14534900       0.30483700
H        9.82945000       1.25870000       0.49124000       0.70226200      -0.52809000       0.48959900      -0.65129800
H        1.15902000       2.32678000      23.84710000       0.65575900       0.04232700      -0.03983300      -0.05673700
H        0.83015000       2.91873000      22.40090000       0.55201700       0.15083100       0.28148000       2.11385100
H        6.15580000       8.21734000      28.10840000       0.64903500      -0.30185600       0.40052700      -0.94264800
H        3.44125000       1.69818000       5.05756000       0.67186000       1.37667900       0.71033500      -1.10819000
H        1.86825000       3.54510000      28.67170000       0.69940900       0.55642400      -0.87082500      -0.85465100
H        0.90019000       4.69418000      28.23470000       0.65955500      -0.81965300       0.35572400      -1.66992700
H        7.16605000       4.74914000      23.61730000       0.67518400       1.99681000      -0.85328200      -0.85479800
H        6.15949000       6.10735000       2.62564000       0.65289100      -0.45029500       1.61386000      -0.18990300
H        5.70085000       6.58248000       1.26261000       0.65901600       0.01813300       0.96483700       0.29940400
H        9.34733000       6.22175000      24.54300000       0.70458700      -0.41991300       0.48758700      -0.09570000
H        8.23156000       7.12439000      22.36350000       0.56740900       0.46634700      -0.23646300       0.24876600
H        5.73012000       2.92978000       0.15778000       0.67462400       0.76954400       0.59582500       0.49246700
H        6.49062000       6.76757000       6.18741000       0.62572600       1.37509700      -1.14773200      -0.11604700
H        7.24630000       3.36753000       0.10320000       0.65233400       0.90482900      -0.51842800      -0.20109100
H        8.04410000       7.89512000      23.63350000       0.65425300       0.48440900       0.11187700       0.28186300
H        6.53499000       5.28874000       6.32175000       0.64604700       0.17490300      -0.51585100       0.09474900
H       10.01240000       8.14142000       7.05620000       0.66237600      -0.19975200       0.76032400       0.25956600
H        9.06062000       7.87080000       5.86742000       0.69863500      -1.13394200       0.68533700      -0.66742000
H        1.06254000       7.64655000       5.58253000       0.68684400      -0.41401200      -0.12786100       0.09408100
H        3.22358000       5.83523000       2.92914000       0.65569800       1.06180000      -1.19012100       0.17323000
H        2.77269000       2.56746000      27.09010000       0.67479500       0.61419300       0.15985900       1.02778600
H        2.01805000       7.27148000       4.39671000       0.67939700       0.10301700      -0.29064100      -0.33646100
H        2.16247000       1.43103000      27.82220000       0.67366800       0.23823500       0.83321800       0.79520800
H        4.14302000       1.09956000       0.45122000       0.66425200       0.46855200      -0.25367900       0.40002600
H        3.93122000       1.64991000      29.24520000       0.67003000       0.54805000       0.92069200      -0.27288200
H        4.91408000       4.00716000       7.01078000       0.65473800      -1.23621400       0.71307700       0.19544600
H        7.26972000       1.89778000      24.26200000       0.64494700      -0.22730300      -2.24488700       0.69524400
H        5.78173000       2.86749000       6.78123000       0.66002600       0.52870000      -1.14789500      -0.10313100
H        6.33688000       0.73606000      24.85460000       0.68497200      -1.66573500      -0.03795400       0.46238400
H        2.77364000       2.78168000       1.19469000       0.63680800       1.73915700      -1.85095100      -2.05745600
H        3.63043000       7.33782000       6.28496000       0.65650300       1.03997800      -0.07557800       0.63975900
H        4.31970000       7.44250000       7.72185000       0.55813000       0.09574500      -0.33301000      -1.11632700
H        8.70004000       3.90110000      26.85220000       0.65366800       0.10284900       0.73450800       0.67865500
H        8.77841000       5.08523000       7.06171000       0.63198300      -0.57035100      -0.15056700       0.07246100
H        1.27615000       1.35236000       6.93475000       0.63643800      -0.35442900       0.15100600      -0.11732400
H        9.92690000       5.94933000       6.88763000       0.66510700       0.30653100       0.40179500      -0.26819100
H        9.62258000       4.86514000      26.11050000       0.66182900      -0.35959800       0.39441600       1.00752500
H        0.06914000       2.12420000       7.59865000       0.59874600       0.46722800      -1.17428300      -0.79535900
H        2.88315000       4.62040000       6.52248000       0.64178200      -0.10340700      -0.02180600       0.12345800
H        2.81263000       3.21482000       7.10483000       0.65324300      -0.03108400       0.14127500      -0.07892200
H        1.78408000       5.79088000       2.23462000       0.69081500      -0.18022500      -0.49707400       0.33275600
H        0.85344000       1.82242000       4.28264000       0.62971800      -0.31037200       0.28918100       0.00722100
H        3.72306000       3.62132000       3.46852000       0.60925300       0.13485600       0.34291900       1.27338300
H        9.54913000       1.38767000       4.46673000       0.68253400      -1.10946300      -1.11948900       0.65447000
H        1.98110000       5.99902000      23.40040000       0.64572600       0.18729700      -0.23419300      -0.48111600
H        5.14239000       3.87796000       3.91148000       0.67646700       0.00606700       0.48382900       0.49188600
H        5.55817000       8.54371000       2.94925000       0.66492500      -0.16987600       0.22627600       0.41316300
H        5.19471000       1.24949000       3.12791000       0.64001100      -0.32749400       1.03163700      -0.71900300
H        0.53489000       8.23098000      24.10900000       0.65555500       1.24330500       0.29953400      -1.01578100
H        3.79616000       7.09195000      27.08630000       0.69225000       0.86174200       1.33507000      -0.78145100
H        6.00691000       4.69244000      25.88280000       0.64931300       0.21133000       0.08203200      -0.23377600
H        4.57674000       6.21013000      28.24590000       0.68848300       0.01595400       0.96900600      -0.32132700
H        4.83195000       4.99603000      26.80360000       0.66944900      -0.35110900       0.12526800       0.26398600
H        1.78225000       3.88762000       1.18411000       0.66606600      -0.05034600      -0.10426900       0.29846700
H        2.81279000       5.07893000      22.34900000       0.61365300      -0.62970200       0.02369600      -0.40613000
H        0.72389000       7.66043000       0.04952000       0.67074700      -0.05336600       0.62837700       0.64463000
H        1.30169000       6.46075000      29.51500000       0.70881700       1.41220600      -2.53118400       0.27907300
H        0.46276000       0.18987000      26.91840000       0.69288600      -0.08318500       0.22219900      -0.07763500
H        1.35803000       8.23422000      27.95630000       0.68009200      -0.06132700      -0.01304800       0.37284500
H        6.57480000       3.94346000       2.34231000       0.66421200      -0.00552300       0.58162300       0.44774900