LAMMPS (28 Mar 2023 - Development)
KOKKOS mode is enabled (src/KOKKOS/kokkos.cpp:107)
  will use up to 1 GPU(s) per node
  using 1 OpenMP thread(s) per MPI task
package kokkos
# LAMMPS input script

# == SETUP ==
units metal #ps A K  pressure in bars
atom_style atomic

atom_modify map yes
newton on

timer timeout 23:55:00
New timer settings: style=normal  mode=nosync  timeout=23:55:00

# == VARIABLES ==
variable    temp_water equal 330  # Temperature of water system
variable    temp_Cu_mobile equal 310 # Temperatureof the Cu atom (not fixed). 310 K ensures a temperature of 330 K in the outermost Cu atoms.
variable    seed1 equal 256982574
variable    seed2 equal 1008705
variable    stride equal 1000
variable    nsteps equal 2000000 # 1000 ps
variable    tstep equal 0.0005 # 0.5fs

# == DATA ==
boundary p p p #full
read_data Cu_H2O_m05.data
Reading data file ...
  orthogonal box = (0 0 0) to (10.140377 8.7818242 30.131127)
  1 by 1 by 1 MPI processor grid
  reading atoms ...
  246 atoms
  reading velocities ...
  246 velocities
  read_data CPU = 0.053 seconds
mass		1 63.55   # Cu
mass		2 2.0016  # H
mass 		3 15.9994 # O

# == Define GROUPS ==
group H2O type 2 3
150 atoms in group H2O

# == DEFINE FIX Cu layers ==
variable z_fix_bottom equal 13.5 # A
variable z_fix_up equal 16.5# # A
region fixedlayer block  INF INF INF INF ${z_fix_bottom} ${z_fix_up} #
region fixedlayer block  INF INF INF INF 13.5 ${z_fix_up} 
region fixedlayer block  INF INF INF INF 13.5 16.5 

group Cuall type 1
96 atoms in group Cuall
group fixedCu region fixedlayer
32 atoms in group fixedCu
group mobileCu subtract Cuall fixedCu
64 atoms in group mobileCu

# == Fix layers in the middle of the slab ==
fix fissoCubott fixedCu setforce 0 0 0
velocity fixedCu set 0 0 0

# == Define surface layers ==

variable z_surface_inf_low equal 9.0 # A
variable z_surface_inf_high equal 10.6 # A
region surface_inf block  INF INF INF INF ${z_surface_inf_low} ${z_surface_inf_high}
region surface_inf block  INF INF INF INF 9 ${z_surface_inf_high}
region surface_inf block  INF INF INF INF 9 10.6
group surf_inf_Cu region surface_inf
16 atoms in group surf_inf_Cu

variable z_surface_sup_low equal 19.8 # A
variable z_surface_sup_high equal 21.0 # A
region surface_sup block  INF INF INF INF ${z_surface_sup_low} ${z_surface_sup_high}
region surface_sup block  INF INF INF INF 19.8 ${z_surface_sup_high}
region surface_sup block  INF INF INF INF 19.8 21
group surf_sup_Cu region surface_sup
16 atoms in group surf_sup_Cu

# == Define Pair Style ==

pair_style mace no_domain_decomposition
pair_coeff * * Franken_Cu_H2O_m05_RF_1024-lammps.pt Cu H O

# == Define NVT thermostat ==

velocity mobileCu create ${temp_Cu_mobile} ${seed1} mom yes rot yes
velocity mobileCu create 310 ${seed1} mom yes rot yes
velocity mobileCu create 310 256982574 mom yes rot yes
fix NVT_Cu mobileCu nvt temp ${temp_Cu_mobile} ${temp_Cu_mobile} $(100.0*dt)
fix NVT_Cu mobileCu nvt temp 310 ${temp_Cu_mobile} $(100.0*dt)
fix NVT_Cu mobileCu nvt temp 310 310 $(100.0*dt)
fix NVT_Cu mobileCu nvt temp 310 310 0.10000000000000000555

velocity  H2O create ${temp_water} ${seed2}
velocity  H2O create 330 ${seed2}
velocity  H2O create 330 1008705
fix NVT_H2O H2O nvt temp ${temp_water} ${temp_water} $(100.0*dt)
fix NVT_H2O H2O nvt temp 330 ${temp_water} $(100.0*dt)
fix NVT_H2O H2O nvt temp 330 330 $(100.0*dt)
fix NVT_H2O H2O nvt temp 330 330 0.10000000000000000555

# == Compute and Visualization ==

thermo          ${stride}
thermo          1000
thermo_style    custom step pe ke etotal temp press vol
thermo_modify	flush yes
fix 		thermo_print all print ${stride} "$(step) $(pe) $(ke) $(etotal) $(temp) $(press) $(vol)" append thermo.out screen no title "#step pe ke etotal temp press vol"
fix 		thermo_print all print 1000 "$(step) $(pe) $(ke) $(etotal) $(temp) $(press) $(vol)" append thermo.out screen no title "#step pe ke etotal temp press vol"

compute Tmobile mobileCu temp
compute Tsurface_inf surf_inf_Cu temp
compute Tsurface_sup surf_sup_Cu temp
compute Twater H2O temp
compute Tall all temp
compute Press all pressure Tall

fix myat1 mobileCu ave/time 1 1 100 c_Tmobile file temperature_mobile.dat
fix myat2 surf_inf_Cu ave/time 1 1 100 c_Tsurface_inf file temperature_surf_inf.dat
fix myat3 surf_sup_Cu ave/time 1 1 100 c_Tsurface_sup file temperature_surf_sup.dat
fix myat4 H2O ave/time 1 1 100 c_Twater file temperature_water.dat
fix myat5 all ave/time 1 1 100 c_Press[3]  file pressure_all.dat

dump		viewNVT all custom ${stride} Cu_H2O_NVT_m05.dump id type element x y z fx fy fz
dump		viewNVT all custom 1000 Cu_H2O_NVT_m05.dump id type element x y z fx fy fz
dump_modify	viewNVT sort id append yes element Cu H O

# == RUN  NVT ==

timestep ${tstep}
timestep 0.0005
run		${nsteps}
run		2000000
Generated 0 of 3 mixed pair_coeff terms from geometric mixing rule
Neighbor list info ...
  update: every = 1 steps, delay = 0 steps, check = yes
  max neighbors/atom: 2000, page size: 100000
  master list distance cutoff = 14
  ghost atom cutoff = 14
  binsize = 14, bins = 1 1 3
  1 neighbor lists, perpetual/occasional/extra = 1 0 0
  (1) pair mace/kk, perpetual
      attributes: full, newton on, kokkos_device
      pair build: full/bin/kk/device
      stencil: full/bin/3d
      bin: kk/device
Per MPI rank memory allocation (min/avg/max) = 4.832 | 4.832 | 4.832 Mbytes
   Step         PotEng         KinEng         TotEng          Temp          Press          Volume    
         0  -1810.7094      8.880172      -1801.8293      280.40816      3534.9742      2683.2073    
      1000  -1811.4765      8.9171382     -1802.5594      281.57544      3549.6895      2683.2073    
      2000  -1810.9142      9.0774067     -1801.8368      286.63622      3613.4884      2683.2073    
      3000  -1809.5496      8.9189409     -1800.6306      281.63237      3550.4071      2683.2073    
      4000  -1810.0885      8.8270446     -1801.2615      278.73057      3513.8255      2683.2073    
      5000  -1810.618       8.7729408     -1801.845       277.02214      3492.2881      2683.2073    
      6000  -1809.9379      9.7512934     -1800.1866      307.91546      3881.7458      2683.2073    
      7000  -1809.5356      9.2343637     -1800.3013      291.59244      3675.9691      2683.2073    
      8000  -1810.7464      8.6904063     -1802.056       274.41596      3459.4332      2683.2073    
      9000  -1811.6135      8.9540869     -1802.6594      282.74217      3564.3979      2683.2073    
     10000  -1811.1934      8.8767031     -1802.3167      280.29863      3533.5933      2683.2073    
     11000  -1810.8913      9.473284      -1801.418       299.1368       3771.0773      2683.2073    
     12000  -1810.5587      8.7070236     -1801.8517      274.94068      3466.0482      2683.2073    
     13000  -1809.5969      9.1356967     -1800.4612      288.47684      3636.6922      2683.2073    
     14000  -1809.2226      9.0404998     -1800.1821      285.47082      3598.7967      2683.2073    
     15000  -1809.3338      8.8788192     -1800.455       280.36545      3534.4357      2683.2073    
     16000  -1810.5693      8.9345438     -1801.6347      282.12506      3556.6182      2683.2073    
     17000  -1810.2461      8.1385253     -1802.1076      256.98927      3239.7432      2683.2073    
     18000  -1811.4081      8.4095917     -1802.9986      265.5487       3347.6479      2683.2073    
     19000  -1811.4794      8.5914908     -1802.8879      271.29251      3420.0574      2683.2073    
     20000  -1810.9943      9.0695321     -1801.9247      286.38757      3610.3537      2683.2073    
     21000  -1811.3855      9.008167      -1802.3773      284.44985      3585.9258      2683.2073    
     22000  -1811.2119      9.4125057     -1801.7994      297.2176       3746.8829      2683.2073    
     23000  -1811.5705      9.398372      -1802.1722      296.77131      3741.2567      2683.2073    
     24000  -1810.5702      8.6812717     -1801.889       274.12751      3455.797       2683.2073    
     25000  -1810.636       8.7168509     -1801.9191      275.25099      3469.9602      2683.2073    
     26000  -1810.562       9.5311049     -1801.0309      300.9626       3794.0943      2683.2073    
     27000  -1811.5537      9.1353647     -1802.4183      288.46636      3636.56        2683.2073    
     28000  -1811.398       9.1932177     -1802.2048      290.29317      3659.5898      2683.2073    
     29000  -1811.9213      9.6498494     -1802.2715      304.71218      3841.3635      2683.2073    
     30000  -1810.5856      8.3955545     -1802.19        265.10545      3342.0601      2683.2073    
     31000  -1811.0375      9.2987109     -1801.7388      293.62432      3701.5841      2683.2073    
     32000  -1809.6059      9.0978344     -1800.508       287.28126      3621.6201      2683.2073    
     33000  -1811.2921      9.69176       -1801.6004      306.03559      3858.0471      2683.2073    
     34000  -1811.4189      8.8245746     -1802.5943      278.65257      3512.8423      2683.2073    
     35000  -1811.2759      8.3037156     -1802.9722      262.20547      3305.5013      2683.2073    
     36000  -1811.6613      9.0964666     -1802.5648      287.23807      3621.0757      2683.2073    
     37000  -1810.4114      8.6309223     -1801.7805      272.53764      3435.7541      2683.2073    
     38000  -1811.4024      9.594239      -1801.8082      302.95617      3819.2264      2683.2073    
     39000  -1809.9423      9.1086573     -1800.8336      287.62302      3625.9285      2683.2073    
     40000  -1810.2414      8.7152843     -1801.5261      275.20153      3469.3365      2683.2073    
     41000  -1810.104       8.4910026     -1801.613       268.11941      3380.0556      2683.2073    
     42000  -1809.5754      9.8102351     -1799.7652      309.77666      3905.209       2683.2073    
     43000  -1810.3157      9.3097863     -1801.0059      293.97404      3705.9929      2683.2073    
     44000  -1810.1327      8.5245067     -1801.6082      269.17736      3393.3928      2683.2073    
     45000  -1810.6344      8.4865907     -1802.1478      267.98009      3378.2993      2683.2073    
     46000  -1810.6594      9.5002741     -1801.1591      299.98906      3781.8213      2683.2073    
     47000  -1809.9903      8.5439166     -1801.4464      269.79027      3401.1193      2683.2073    
     48000  -1809.8376      9.1921973     -1800.6454      290.26095      3659.1837      2683.2073    
     49000  -1809.4605      8.1979266     -1801.2626      258.86498      3263.3894      2683.2073    
     50000  -1810.1963      8.8167695     -1801.3795      278.40611      3509.7353      2683.2073    
     51000  -1810.3778      8.6441161     -1801.7336      272.95425      3441.0062      2683.2073    
     52000  -1810.5704      9.4150594     -1801.1554      297.29824      3747.8995      2683.2073    
     53000  -1811.236       8.8971271     -1802.3389      280.94355      3541.7236      2683.2073    
     54000  -1810.9071      8.8895126     -1802.0175      280.70311      3538.6925      2683.2073    
     55000  -1809.8279      9.0948282     -1800.7331      287.18634      3620.4235      2683.2073    
     56000  -1810.7522      8.0943006     -1802.6579      255.59279      3222.1385      2683.2073    
     57000  -1810.4478      8.4895247     -1801.9583      268.07274      3379.4673      2683.2073    
     58000  -1809.9566      8.6508154     -1801.3058      273.1658       3443.6731      2683.2073    
     59000  -1810.5801      9.7955324     -1800.7846      309.31239      3899.3562      2683.2073    
     60000  -1809.8026      8.5951831     -1801.2074      271.4091       3421.5273      2683.2073    
     61000  -1810.8731      8.7345922     -1802.1385      275.81121      3477.0225      2683.2073    
     62000  -1810.7106      8.6626513     -1802.048       273.53954      3448.3847      2683.2073    
     63000  -1810.5807      8.576325      -1802.0044      270.81362      3414.0203      2683.2073    
     64000  -1809.7391      8.4235181     -1801.3156      265.98846      3353.1917      2683.2073    
     65000  -1809.994       9.2705477     -1800.7234      292.73501      3690.373       2683.2073    
     66000  -1810.2107      8.4748034     -1801.7359      267.60789      3373.6071      2683.2073    
     67000  -1810.7435      8.6466345     -1802.0969      273.03378      3442.0087      2683.2073    
     68000  -1810.4438      8.323591      -1802.1202      262.83307      3313.4132      2683.2073    
     69000  -1810.353       7.9565268     -1802.3965      251.24233      3167.2942      2683.2073    
     70000  -1810.7969      9.1063354     -1801.6905      287.5497       3625.0042      2683.2073    
     71000  -1809.0593      7.9888892     -1801.0705      252.26423      3180.1768      2683.2073    
     72000  -1809.8833      8.7456184     -1801.1377      276.15938      3481.4118      2683.2073    
     73000  -1810.5762      8.2065396     -1802.3696      259.13695      3266.818       2683.2073    
     74000  -1810.5049      9.0094246     -1801.4955      284.48956      3586.4264      2683.2073    
     75000  -1808.9648      9.7477725     -1799.217       307.80428      3880.3442      2683.2073    
     76000  -1810.5832      9.7831084     -1800.8001      308.92008      3894.4106      2683.2073    
     77000  -1809.7805      8.7870262     -1800.9934      277.46691      3497.8952      2683.2073    
     78000  -1810.1125      8.4616698     -1801.6508      267.19317      3368.3789      2683.2073    
     79000  -1810.0699      9.4621599     -1800.6078      298.78553      3766.649       2683.2073    
     80000  -1809.6418      9.1891846     -1800.4526      290.16582      3657.9844      2683.2073    
     81000  -1810.362       8.7942299     -1801.5678      277.69438      3500.7628      2683.2073    
     82000  -1810.6491      8.6287852     -1802.0203      272.47015      3434.9034      2683.2073    
     83000  -1810.5411      8.4336101     -1802.1075      266.30713      3357.2091      2683.2073    
     84000  -1810.4235      8.3740366     -1802.0495      264.42599      3333.4944      2683.2073    
     85000  -1808.9882      8.9590298     -1800.0292      282.89825      3566.3655      2683.2073    
     86000  -1811.1085      8.3818491     -1802.7267      264.67268      3336.6043      2683.2073    
     87000  -1809.3528      8.2934514     -1801.0593      261.88136      3301.4154      2683.2073    
     88000  -1810.7989      8.1717166     -1802.6271      258.03735      3252.9558      2683.2073    
     89000  -1811.1946      8.0837755     -1803.1108      255.26045      3217.9487      2683.2073    
     90000  -1810.5701      8.331758      -1802.2383      263.09096      3316.6643      2683.2073    
     91000  -1810.5379      8.9433478     -1801.5945      282.40306      3560.1229      2683.2073    
     92000  -1810.1419      9.5293946     -1800.6125      300.90859      3793.4135      2683.2073    
     93000  -1809.8921      8.6225298     -1801.2696      272.27263      3432.4133      2683.2073    
     94000  -1810.5177      8.9825901     -1801.5352      283.64221      3575.7443      2683.2073    
     95000  -1810.841       9.3166276     -1801.5244      294.19007      3708.7162      2683.2073    
     96000  -1809.8704      8.8747268     -1800.9957      280.23622      3532.8066      2683.2073    
     97000  -1811.8142      9.322639      -1802.4916      294.3799       3711.1093      2683.2073    
     98000  -1811.7106      8.9857229     -1802.7249      283.74113      3576.9914      2683.2073    
     99000  -1811.8143      9.5768595     -1802.2374      302.40739      3812.3081      2683.2073    
    100000  -1811.0831      8.8801806     -1802.2029      280.40844      3534.9776      2683.2073    
    101000  -1811.0566      7.9196588     -1803.1369      250.07815      3152.6179      2683.2073    
    102000  -1811.6955      9.2930497     -1802.4025      293.44556      3699.3305      2683.2073    
    103000  -1811.0999      9.2287232     -1801.8712      291.41433      3673.7237      2683.2073    
    104000  -1809.3504      9.2149115     -1800.1355      290.9782       3668.2256      2683.2073    
    105000  -1810.7331      8.3771619     -1802.356       264.52467      3334.7384      2683.2073    
    106000  -1810.8923      9.1061582     -1801.7862      287.5441       3624.9336      2683.2073    
    107000  -1810.1102      8.3928818     -1801.7173      265.02106      3340.9962      2683.2073    
    108000  -1810.7548      9.4071857     -1801.3476      297.04961      3744.7651      2683.2073    
    109000  -1810.9044      9.4874215     -1801.4169      299.58321      3776.705       2683.2073    
    110000  -1809.4792      9.1238494     -1800.3553      288.10274      3631.9761      2683.2073    
    111000  -1810.6672      8.3083374     -1802.3589      262.35141      3307.3411      2683.2073    
    112000  -1810.6734      8.26707       -1802.4063      261.04832      3290.9137      2683.2073    
    113000  -1809.7473      8.3529048     -1801.3943      263.75871      3325.0823      2683.2073    
    114000  -1810.9625      8.909712      -1802.0528      281.34094      3546.7333      2683.2073    
    115000  -1810.9504      9.6165712     -1801.3338      303.66136      3828.1163      2683.2073    
    116000  -1810.9698      9.891399      -1801.0784      312.33956      3937.5183      2683.2073    
    117000  -1809.4317      8.7978021     -1800.6339      277.80718      3502.1848      2683.2073    
    118000  -1811.001       9.7008444     -1801.3002      306.32244      3861.6634      2683.2073    
    119000  -1810.2248      8.7695332     -1801.4552      276.91454      3490.9317      2683.2073    
    120000  -1809.8154      9.1312162     -1800.6842      288.33536      3634.9086      2683.2073    
    121000  -1809.6649      8.6556334     -1801.0093      273.31794      3445.591       2683.2073    
    122000  -1810.6993      8.7747996     -1801.9245      277.08083      3493.0281      2683.2073    
    123000  -1812.1488      9.1886063     -1802.9602      290.14756      3657.7542      2683.2073    
    124000  -1810.2396      9.031468      -1801.2081      285.18562      3595.2014      2683.2073    
    125000  -1810.3665      9.3719209     -1800.9946      295.93606      3730.7271      2683.2073    
    126000  -1809.945       8.9776338     -1800.9673      283.48571      3573.7713      2683.2073    
    127000  -1809.241       8.8865328     -1800.3545      280.60902      3537.5063      2683.2073    
    128000  -1810.904       10.203859     -1800.7002      322.20608      4061.9009      2683.2073    
    129000  -1811.0364      9.4495941     -1801.5868      298.38874      3761.6469      2683.2073    
    130000  -1810.3101      9.0202157     -1801.2899      284.83031      3590.7221      2683.2073    
    131000  -1810.4659      8.2173451     -1802.2485      259.47815      3271.1194      2683.2073    
    132000  -1811.3885      9.0145882     -1802.3739      284.65261      3588.4819      2683.2073    
    133000  -1809.617       8.9658384     -1800.6512      283.11324      3569.0758      2683.2073    
    134000  -1809.8774      9.4715745     -1800.4058      299.08281      3770.3967      2683.2073    
    135000  -1810.506       9.1397561     -1801.3662      288.60502      3638.3081      2683.2073    
    136000  -1809.1815      9.0587638     -1800.1227      286.04754      3606.0671      2683.2073    
    137000  -1809.6125      9.4815332     -1800.131       299.39728      3774.361       2683.2073    
    138000  -1810.5423      8.6642072     -1801.8781      273.58867      3449.004       2683.2073    
    139000  -1810.2759      8.7971629     -1801.4787      277.787        3501.9304      2683.2073    
    140000  -1811.5201      8.6942176     -1802.8259      274.5363       3460.9504      2683.2073    
    141000  -1809.352       9.7333454     -1799.6187      307.34872      3874.6012      2683.2073    
    142000  -1810.7274      8.1446816     -1802.5827      257.18367      3242.1939      2683.2073    
    143000  -1810.2263      9.4179732     -1800.8083      297.39025      3749.0594      2683.2073    
    144000  -1809.846       8.8007949     -1801.0452      277.90168      3503.3762      2683.2073    
    145000  -1810.081       10.021781     -1800.0592      316.45662      3989.4202      2683.2073    
    146000  -1810.8345      9.6026155     -1801.2319      303.22068      3822.5609      2683.2073    
    147000  -1810.3109      9.0599021     -1801.251       286.08348      3606.5202      2683.2073    
    148000  -1810.9706      8.5960327     -1802.3745      271.43593      3421.8655      2683.2073    
    149000  -1810.8538      8.329945      -1802.5238      263.03371      3315.9426      2683.2073    
    150000  -1810.9306      8.7063834     -1802.2242      274.92046      3465.7933      2683.2073    
    151000  -1811.2175      8.5817267     -1802.6358      270.98419      3416.1706      2683.2073    
    152000  -1809.9745      8.8221906     -1801.1523      278.57729      3511.8932      2683.2073    
    153000  -1810.7498      8.672412      -1802.0774      273.84775      3452.2701      2683.2073    
    154000  -1811.4627      8.756744      -1802.7059      276.51069      3485.8406      2683.2073    
    155000  -1811.1453      8.0427885     -1803.1025      253.9662       3201.6328      2683.2073    
    156000  -1810.7536      8.83665       -1801.9169      279.03387      3517.6492      2683.2073    
    157000  -1809.9487      9.0276453     -1800.9211      285.06491      3593.6796      2683.2073    
    158000  -1811.4027      8.7057963     -1802.6969      274.90192      3465.5596      2683.2073    
    159000  -1811.3784      9.0582218     -1802.3202      286.03042      3605.8514      2683.2073    
    160000  -1811.4607      8.5934558     -1802.8672      271.35456      3420.8397      2683.2073    
    161000  -1812.554       9.3602466     -1803.1937      295.56743      3726.0799      2683.2073    
    162000  -1811.8743      7.9611969     -1803.9131      251.3898       3169.1532      2683.2073    
    163000  -1812.0411      8.7424744     -1803.2986      276.0601       3480.1602      2683.2073    
    164000  -1811.6385      9.359486      -1802.2791      295.54341      3725.7771      2683.2073    
    165000  -1811.8139      8.7388672     -1803.075       275.9462       3478.7243      2683.2073    
    166000  -1810.9422      8.6699203     -1802.2723      273.76907      3451.2783      2683.2073    
    167000  -1810.3569      8.5476668     -1801.8092      269.90869      3402.6122      2683.2073    
    168000  -1811.1885      9.8450693     -1801.3434      310.87661      3919.0756      2683.2073    
    169000  -1811.7097      9.5548315     -1802.1549      301.71181      3803.5392      2683.2073    
    170000  -1810.862       8.528839      -1802.3332      269.31416      3395.1173      2683.2073    
    171000  -1811.8942      8.4386121     -1803.4556      266.46508      3359.2003      2683.2073    
    172000  -1810.4026      9.2732594     -1801.1294      292.82064      3691.4524      2683.2073    
    173000  -1811.0843      9.0548368     -1802.0295      285.92354      3604.5039      2683.2073    
    174000  -1811.1058      9.3083502     -1801.7975      293.9287       3705.4212      2683.2073    
    175000  -1811.1805      8.9083956     -1802.2721      281.29938      3546.2093      2683.2073    
    176000  -1811.0639      8.9114698     -1802.1524      281.39645      3547.4331      2683.2073    
    177000  -1812.2252      9.730752      -1802.4944      307.26683      3873.5688      2683.2073    
    178000  -1811.9878      9.6081394     -1802.3797      303.39511      3824.7598      2683.2073    
    179000  -1811.6232      8.8781401     -1802.7451      280.344        3534.1653      2683.2073    
    180000  -1811.7302      7.8150177     -1803.9152      246.77391      3110.9629      2683.2073    
    181000  -1811.5258      7.7183797     -1803.8074      243.72238      3072.4937      2683.2073    
    182000  -1811.0262      8.7466717     -1802.2796      276.19264      3481.8311      2683.2073    
    183000  -1811.4562      8.3612923     -1803.095       264.02356      3328.4212      2683.2073    
    184000  -1811.0531      9.2700649     -1801.783       292.71977      3690.1808      2683.2073    
    185000  -1811.4243      9.2320483     -1802.1922      291.51932      3675.0474      2683.2073    
    186000  -1811.7135      8.8715921     -1802.8419      280.13724      3531.5587      2683.2073    
    187000  -1810.8359      9.5241653     -1801.3118      300.74347      3791.3318      2683.2073    
    188000  -1810.6797      8.5977068     -1802.082       271.48879      3422.5319      2683.2073    
    189000  -1811.3954      8.5799731     -1802.8154      270.92882      3415.4725      2683.2073    
    190000  -1810.7247      8.6104508     -1802.1142      271.89121      3427.6049      2683.2073    
    191000  -1810.1049      8.776769      -1801.3281      277.14302      3493.8121      2683.2073    
    192000  -1811.6285      8.0080466     -1803.6204      252.86916      3187.8029      2683.2073    
    193000  -1810.9083      8.6759053     -1802.2324      273.95806      3453.6607      2683.2073    
    194000  -1811.5583      9.1974291     -1802.3609      290.42615      3661.2663      2683.2073    
    195000  -1810.727       8.4679449     -1802.2591      267.39132      3370.8769      2683.2073    
    196000  -1810.1222      8.7428234     -1801.3794      276.07112      3480.2992      2683.2073    
    197000  -1809.5708      9.0948506     -1800.4759      287.18705      3620.4324      2683.2073    
    198000  -1810.3205      9.6121767     -1800.7083      303.52259      3826.367       2683.2073    
    199000  -1810.8141      9.383003      -1801.4311      296.286        3735.1386      2683.2073    
    200000  -1810.0322      8.2809002     -1801.7513      261.48503      3296.4191      2683.2073    
    201000  -1811.7196      7.4195459     -1804.3001      234.28614      2953.5355      2683.2073    
    202000  -1810.8573      8.6113075     -1802.246       271.91826      3427.946       2683.2073    
    203000  -1811.5831      9.8892117     -1801.6939      312.27049      3936.6476      2683.2073    
    204000  -1810.1975      9.6118184     -1800.5856      303.51128      3826.2243      2683.2073    
    205000  -1810.1259      8.8213565     -1801.3045      278.55095      3511.5612      2683.2073    
    206000  -1811.188       9.490461      -1801.6975      299.67919      3777.915       2683.2073    
    207000  -1810.4767      9.1883601     -1801.2884      290.13978      3657.6562      2683.2073    
    208000  -1810.1881      9.1247342     -1801.0634      288.13068      3632.3283      2683.2073    
    209000  -1810.6765      8.4431015     -1802.2334      266.60684      3360.9874      2683.2073    
    210000  -1810.9053      8.5732314     -1802.332       270.71594      3412.7888      2683.2073    
    211000  -1810.1488      7.6981425     -1802.4507      243.08336      3064.4378      2683.2073    
    212000  -1810.6396      8.1055655     -1802.534       255.94851      3226.6227      2683.2073    
    213000  -1810.4595      9.3867643     -1801.0728      296.40477      3736.6359      2683.2073    
    214000  -1810.9134      9.3082138     -1801.6052      293.92439      3705.3669      2683.2073    
    215000  -1810.7273      8.7362442     -1801.9911      275.86337      3477.6802      2683.2073    
    216000  -1811.6358      8.4634317     -1803.1724      267.24881      3369.0803      2683.2073    
    217000  -1811.7534      8.9546921     -1802.7987      282.76128      3564.6388      2683.2073    
    218000  -1812.1678      8.5642114     -1803.6036      270.43111      3409.1982      2683.2073    
    219000  -1811.5408      8.9320757     -1802.6087      282.04712      3555.6358      2683.2073    
    220000  -1811.4731      9.0882584     -1802.3848      286.97889      3617.8082      2683.2073    
    221000  -1810.3794      9.3175898     -1801.0619      294.22046      3709.0993      2683.2073    
    222000  -1810.5742      9.2576246     -1801.3166      292.32694      3685.2286      2683.2073    
    223000  -1812.4999      8.9105786     -1803.5893      281.36831      3547.0783      2683.2073    
    224000  -1812.9654      9.3216772     -1803.6437      294.34952      3710.7264      2683.2073    
    225000  -1811.4678      7.8167238     -1803.651       246.82778      3111.6421      2683.2073    
    226000  -1811.0552      8.6565854     -1802.3986      273.348        3445.97        2683.2073    
    227000  -1811.0016      8.1434881     -1802.8581      257.14598      3241.7188      2683.2073    
    228000  -1811.8909      7.7740473     -1804.1169      245.48019      3094.6536      2683.2073    
    229000  -1811.4769      9.8004136     -1801.6764      309.46653      3901.2993      2683.2073    
    230000  -1810.608       9.0058141     -1801.6022      284.37555      3584.9892      2683.2073    
    231000  -1810.5461      7.8742973     -1802.6718      248.64578      3134.5607      2683.2073    
    232000  -1811.7418      9.1230776     -1802.6187      288.07837      3631.6688      2683.2073    
    233000  -1810.3999      9.2465491     -1801.1534      291.97721      3680.8197      2683.2073    
    234000  -1811.3716      9.5270754     -1801.8446      300.83536      3792.4902      2683.2073    
    235000  -1809.922       9.2423316     -1800.6796      291.84404      3679.1409      2683.2073    
    236000  -1811.8721      9.223253      -1802.6489      291.24159      3671.5462      2683.2073    
    237000  -1811.8545      9.6037463     -1802.2507      303.25639      3823.011       2683.2073    
    238000  -1811.3433      8.8176785     -1802.5256      278.43481      3510.0971      2683.2073    
    239000  -1811.018       8.0794508     -1802.9385      255.12388      3216.2271      2683.2073    
    240000  -1809.6207      9.63811       -1799.9826      304.34149      3836.6903      2683.2073    
    241000  -1810.8879      8.2694466     -1802.6185      261.12336      3291.8597      2683.2073    
    242000  -1811.0418      8.8045307     -1802.2372      278.01965      3504.8633      2683.2073    
    243000  -1810.4023      8.9599887     -1801.4423      282.92853      3566.7472      2683.2073    
    244000  -1809.9287      8.3961033     -1801.5326      265.12278      3342.2786      2683.2073    
    245000  -1809.9992      8.3453129     -1801.6538      263.51898      3322.0602      2683.2073    
    246000  -1809.7715      9.5940972     -1800.1774      302.9517       3819.1699      2683.2073    
    247000  -1809.9313      8.8917715     -1801.0395      280.77444      3539.5917      2683.2073    
    248000  -1811.2233      9.3998722     -1801.8234      296.81868      3741.8538      2683.2073    
    249000  -1810.9945      8.7306106     -1802.2639      275.68548      3475.4375      2683.2073    
    250000  -1810.4599      9.6014521     -1800.8585      303.18394      3822.0978      2683.2073    
    251000  -1810.6023      8.7998742     -1801.8024      277.87261      3503.0096      2683.2073    
    252000  -1810.8454      8.5367979     -1802.3086      269.56548      3398.2856      2683.2073    
    253000  -1810.9121      8.4046359     -1802.5075      265.39221      3345.6752      2683.2073    
    254000  -1810.51        8.6939958     -1801.816       274.5293       3460.8621      2683.2073    
    255000  -1809.438       9.0504613     -1800.3875      285.78537      3602.7621      2683.2073    
    256000  -1810.6445      9.5872692     -1801.0572      302.73609      3816.4519      2683.2073    
    257000  -1809.8396      8.9673977     -1800.8722      283.16248      3569.6966      2683.2073    
    258000  -1811.4172      9.3297592     -1802.0875      294.60473      3713.9436      2683.2073    
    259000  -1810.3997      8.9418843     -1801.4578      282.35685      3559.5403      2683.2073    
    260000  -1811.2324      8.0667984     -1803.1656      254.72436      3211.1905      2683.2073    
    261000  -1810.4513      8.1236094     -1802.3277      256.51827      3233.8055      2683.2073    
    262000  -1810.0657      9.3403558     -1800.7254      294.93934      3718.1619      2683.2073    
    263000  -1810.9958      9.5654727     -1801.4303      302.04782      3807.7752      2683.2073    
    264000  -1811.1541      8.8986467     -1802.2555      280.99154      3542.3285      2683.2073    
    265000  -1809.8231      8.643716      -1801.1793      272.94162      3440.847       2683.2073    
    266000  -1811.0737      8.631322      -1802.4424      272.55026      3435.9133      2683.2073    
    267000  -1812.0428      8.1268832     -1803.9159      256.62165      3235.1088      2683.2073    
    268000  -1810.3737      9.002301      -1801.3714      284.26462      3583.5907      2683.2073    
    269000  -1810.82        9.3652341     -1801.4547      295.72491      3728.0653      2683.2073    
    270000  -1811.1884      8.3943097     -1802.7941      265.06615      3341.5646      2683.2073    
    271000  -1809.8422      8.576907      -1801.2653      270.832        3414.252       2683.2073    
    272000  -1809.3552      8.8567702     -1800.4984      279.66921      3525.6585      2683.2073    
    273000  -1810.1774      8.7929031     -1801.3845      277.65248      3500.2346      2683.2073    
    274000  -1810.7933      8.9712023     -1801.8221      283.28262      3571.2111      2683.2073    
    275000  -1809.9664      8.4125605     -1801.5539      265.64245      3348.8298      2683.2073    
    276000  -1809.4107      8.5915258     -1800.8192      271.29362      3420.0714      2683.2073    
    277000  -1810.1975      8.3094869     -1801.888       262.38771      3307.7987      2683.2073    
    278000  -1809.5317      9.0383491     -1800.4933      285.40291      3597.9406      2683.2073    
    279000  -1811.1943      9.2239375     -1801.9703      291.26321      3671.8186      2683.2073    
    280000  -1809.5824      9.09754       -1800.4849      287.27197      3621.503       2683.2073    
    281000  -1809.8569      9.3865341     -1800.4704      296.3975       3736.5443      2683.2073    
    282000  -1810.3839      8.8234464     -1801.5604      278.61695      3512.3931      2683.2073    
    283000  -1810.7131      9.184961      -1801.5282      290.03245      3656.3031      2683.2073    
    284000  -1810.5239      9.0353297     -1801.4885      285.30756      3596.7386      2683.2073    
    285000  -1811.1342      8.3791329     -1802.7551      264.58691      3335.5231      2683.2073    
    286000  -1810.5437      9.2032016     -1801.3405      290.60843      3663.5642      2683.2073    
    287000  -1809.5995      9.4172145     -1800.1823      297.36629      3748.7574      2683.2073    
    288000  -1811.4197      8.6655136     -1802.7542      273.62992      3449.5241      2683.2073    
    289000  -1811.3514      9.916737      -1801.4347      313.13966      3947.6048      2683.2073    
    290000  -1811.3614      8.1969765     -1803.1645      258.83498      3263.0111      2683.2073    
    291000  -1810.748       8.9159141     -1801.8321      281.53679      3549.2022      2683.2073    
    292000  -1811.6804      8.4913846     -1803.189       268.13147      3380.2077      2683.2073    
    293000  -1811.5279      8.9211079     -1802.6068      281.70079      3551.2697      2683.2073    
    294000  -1811.0562      8.8477417     -1802.2084      279.38412      3522.0645      2683.2073    
    295000  -1811.0505      8.9966132     -1802.0539      284.08501      3581.3265      2683.2073    
    296000  -1811.0342      8.1795386     -1802.8547      258.28434      3256.0696      2683.2073    
    297000  -1810.8236      8.7514311     -1802.0722      276.34293      3483.7257      2683.2073    
    298000  -1810.6168      8.5655352     -1802.0512      270.47291      3409.7252      2683.2073    
    299000  -1811.3578      9.1975225     -1802.1602      290.42911      3661.3035      2683.2073    
    300000  -1810.1925      8.1230585     -1802.0695      256.50088      3233.5863      2683.2073    
    301000  -1810.5823      8.5468513     -1802.0354      269.88294      3402.2876      2683.2073    
    302000  -1811.874       8.2488242     -1803.6251      260.47217      3283.6504      2683.2073    
    303000  -1811.0625      9.4936815     -1801.5688      299.78088      3779.197       2683.2073    
    304000  -1811.401       8.552876      -1802.8481      270.07318      3404.6859      2683.2073    
    305000  -1810.7501      8.6895501     -1802.0605      274.38892      3459.0924      2683.2073    
    306000  -1810.3555      8.4967583     -1801.8587      268.30116      3382.3468      2683.2073    
    307000  -1811.0353      9.4757224     -1801.5595      299.21379      3772.0479      2683.2073    
    308000  -1811.1194      8.9507428     -1802.1687      282.63657      3563.0666      2683.2073    
    309000  -1810.8232      9.5139801     -1801.3092      300.42185      3787.2773      2683.2073    
    310000  -1811.2516      9.1772799     -1802.0744      289.78991      3653.2454      2683.2073    
    311000  -1810.2998      8.7253629     -1801.5745      275.51978      3473.3486      2683.2073    
    312000  -1810.5793      8.9599645     -1801.6193      282.92776      3566.7376      2683.2073    
    313000  -1811.0475      7.6479615     -1803.3996      241.4988       3044.462       2683.2073    
    314000  -1810.3808      9.330125      -1801.0507      294.61628      3714.0892      2683.2073    
    315000  -1809.9959      8.8349699     -1801.1609      278.98082      3516.9804      2683.2073    
    316000  -1809.2511      9.4490032     -1799.8021      298.37008      3761.4117      2683.2073    
    317000  -1810.4047      8.9623227     -1801.4423      283.00223      3567.6763      2683.2073    
    318000  -1809.2928      9.1256131     -1800.1672      288.15843      3632.6782      2683.2073    
    319000  -1810.5713      8.9346123     -1801.6367      282.12722      3556.6455      2683.2073    
    320000  -1810.5139      8.8628916     -1801.651       279.8625       3528.0953      2683.2073    
    321000  -1810.2522      9.3506501     -1800.9016      295.2644       3722.2598      2683.2073    
    322000  -1811.3563      8.6724653     -1802.6838      273.84943      3452.2913      2683.2073    
    323000  -1811.6465      7.9858763     -1803.6606      252.16909      3178.9774      2683.2073    
    324000  -1810.3076      9.2001206     -1801.1075      290.51114      3662.3377      2683.2073    
    325000  -1811.4917      9.3926669     -1802.0991      296.59116      3738.9856      2683.2073    
    326000  -1811.03        8.3887465     -1802.6413      264.89048      3339.35        2683.2073    
    327000  -1811.2478      8.7333059     -1802.5145      275.77059      3476.5105      2683.2073    
    328000  -1811.2695      8.7164856     -1802.553       275.23946      3469.8148      2683.2073    
    329000  -1811.5393      8.4282141     -1803.1111      266.13674      3355.0611      2683.2073    
    330000  -1810.8366      8.549175      -1802.2874      269.95631      3403.2126      2683.2073    
    331000  -1810.8287      8.7039447     -1802.1248      274.84345      3464.8225      2683.2073    
    332000  -1811.6048      8.8630836     -1802.7417      279.86857      3528.1717      2683.2073    
    333000  -1811.9122      9.4197506     -1802.4925      297.44638      3749.7669      2683.2073    
    334000  -1811.155       8.8883577     -1802.2666      280.66664      3538.2327      2683.2073    
    335000  -1810.8069      8.975188      -1801.8318      283.40847      3572.7977      2683.2073    
    336000  -1811.2996      8.7056735     -1802.5939      274.89805      3465.5107      2683.2073    
    337000  -1812.0165      8.6499726     -1803.3665      273.13918      3443.3376      2683.2073    
    338000  -1810.3299      8.6712396     -1801.6586      273.81073      3451.8035      2683.2073    
    339000  -1811.8338      8.5457951     -1803.288       269.84958      3401.8671      2683.2073    
    340000  -1811.6348      9.5316531     -1802.1032      300.97991      3794.3125      2683.2073    
    341000  -1811.1758      9.2665764     -1801.9092      292.60961      3688.7921      2683.2073    
    342000  -1810.017       8.913089      -1801.104       281.44758      3548.0776      2683.2073    
    343000  -1810.6757      8.966076      -1801.7096      283.12075      3569.1704      2683.2073    
    344000  -1811.1273      9.1181433     -1802.0091      287.92256      3629.7046      2683.2073    
    345000  -1810.8781      9.2377352     -1801.6404      291.6989       3677.3112      2683.2073    
    346000  -1810.1289      9.1512213     -1800.9777      288.96706      3642.8722      2683.2073    
    347000  -1810.3814      9.2304758     -1801.1509      291.46967      3674.4214      2683.2073    
    348000  -1810.3616      8.2415907     -1802.12        260.24376      3280.771       2683.2073    
    349000  -1811.3943      8.2680117     -1803.1263      261.07805      3291.2885      2683.2073    
    350000  -1810.659       9.0974316     -1801.5616      287.26855      3621.4598      2683.2073    
    351000  -1810.5353      8.7224655     -1801.8128      275.42828      3472.1952      2683.2073    
    352000  -1810.5025      9.4076208     -1801.0948      297.06335      3744.9384      2683.2073    
    353000  -1811.7205      9.6211811     -1802.0993      303.80692      3829.9514      2683.2073    
    354000  -1810.8554      8.7365453     -1802.1188      275.87288      3477.8         2683.2073    
    355000  -1809.7275      9.4167884     -1800.3107      297.35284      3748.5878      2683.2073    
    356000  -1809.7002      9.9990558     -1799.7012      315.73903      3980.3738      2683.2073    
    357000  -1809.9341      9.1312083     -1800.8029      288.33511      3634.9055      2683.2073    
    358000  -1809.2091      8.3565039     -1800.8526      263.87236      3326.515       2683.2073    
    359000  -1809.9597      9.9652581     -1799.9945      314.6718       3966.9198      2683.2073    
    360000  -1809.8279      8.2411673     -1801.5867      260.23039      3280.6024      2683.2073    
    361000  -1810.0809      8.7429406     -1801.338       276.07483      3480.3458      2683.2073    
    362000  -1809.3992      8.1327487     -1801.2665      256.80687      3237.4437      2683.2073    
    363000  -1809.941       8.6955496     -1801.2454      274.57836      3461.4806      2683.2073    
    364000  -1811.0808      9.5551478     -1801.5257      301.7218       3803.6652      2683.2073    
    365000  -1809.9504      8.0382607     -1801.9121      253.82323      3199.8304      2683.2073    
    366000  -1810.0333      8.523195      -1801.5101      269.13594      3392.8706      2683.2073    
    367000  -1810.8992      8.8269903     -1802.0722      278.72885      3513.8039      2683.2073    
    368000  -1810.5656      9.029082      -1801.5365      285.11028      3594.2515      2683.2073    
    369000  -1810.4485      8.5335227     -1801.915       269.46206      3396.9818      2683.2073    
    370000  -1809.5797      9.6046312     -1799.975       303.28433      3823.3633      2683.2073    
    371000  -1810.1837      8.9296853     -1801.254       281.97164      3554.6842      2683.2073    
    372000  -1810.9436      8.565539      -1802.378       270.47303      3409.7267      2683.2073    
    373000  -1810.1551      8.9346251     -1801.2205      282.12762      3556.6506      2683.2073    
    374000  -1810.4096      8.304937      -1802.1047      262.24404      3305.9875      2683.2073    
    375000  -1810.9063      9.4388295     -1801.4675      298.04883      3757.3618      2683.2073    
    376000  -1810.8539      9.3600135     -1801.4939      295.56006      3725.9871      2683.2073    
    377000  -1810.2805      9.2637319     -1801.0168      292.51979      3687.6598      2683.2073    
    378000  -1809.7029      8.6753918     -1801.0275      273.94184      3453.4563      2683.2073    
    379000  -1810.826       8.3779339     -1802.448       264.54905      3335.0458      2683.2073    
    380000  -1810.1135      8.6948487     -1801.4187      274.55623      3461.2016      2683.2073    
    381000  -1811.1011      9.4315562     -1801.6696      297.81916      3754.4664      2683.2073    
    382000  -1810.0699      8.839998      -1801.2299      279.13959      3518.9819      2683.2073    
    383000  -1810.1147      9.0640829     -1801.0506      286.2155       3608.1845      2683.2073    
    384000  -1809.5702      8.7120428     -1800.8581      275.09917      3468.0462      2683.2073    
    385000  -1810.2129      9.2320842     -1800.9808      291.52046      3675.0617      2683.2073    
    386000  -1810.268       9.2407185     -1801.0272      291.7931       3678.4987      2683.2073    
    387000  -1810.6347      9.1059257     -1801.5288      287.53676      3624.8411      2683.2073    
    388000  -1810.8003      8.506025      -1802.2943      268.59377      3386.0356      2683.2073    
    389000  -1811.1896      8.7924988     -1802.3971      277.63972      3500.0737      2683.2073    
    390000  -1809.8857      8.6528012     -1801.2329      273.2285       3444.4636      2683.2073    
    391000  -1810.1657      9.1519277     -1801.0138      288.98936      3643.1533      2683.2073    
    392000  -1810.4827      8.8884518     -1801.5942      280.66961      3538.2702      2683.2073    
    393000  -1810.6791      8.869448      -1801.8096      280.06954      3530.7053      2683.2073    
    394000  -1810.5822      9.4808836     -1801.1013      299.37677      3774.1024      2683.2073    
    395000  -1811.4119      8.3444884     -1803.0675      263.49295      3321.732       2683.2073    
    396000  -1810.3324      8.9680351     -1801.3644      283.18261      3569.9503      2683.2073    
    397000  -1811.1813      8.7553902     -1802.4259      276.46794      3485.3017      2683.2073    
    398000  -1811.6008      8.8315465     -1802.7692      278.87272      3515.6176      2683.2073    
    399000  -1810.0465      9.1553432     -1800.8911      289.09721      3644.513       2683.2073    
    400000  -1810.1694      9.3897602     -1800.7796      296.49937      3737.8285      2683.2073    
    401000  -1811.8652      8.6681117     -1803.1971      273.71196      3450.5583      2683.2073    
    402000  -1810.831       9.4922624     -1801.3387      299.73607      3778.6321      2683.2073    
    403000  -1810.4835      9.1726548     -1801.3109      289.64386      3651.4043      2683.2073    
    404000  -1810.8986      9.3383727     -1801.5602      294.87671      3717.3724      2683.2073    
    405000  -1809.9904      8.6593496     -1801.3311      273.43528      3447.0703      2683.2073    
    406000  -1810.1197      9.9459459     -1800.1737      314.06198      3959.2321      2683.2073    
    407000  -1809.5443      9.1760247     -1800.3683      289.75027      3652.7457      2683.2073    
    408000  -1810.8164      8.8786343     -1801.9377      280.35961      3534.3621      2683.2073    
    409000  -1811.7322      8.2727762     -1803.4594      261.2285       3293.1851      2683.2073    
    410000  -1810.4468      9.2896502     -1801.1572      293.33821      3697.9772      2683.2073    
    411000  -1810.5775      9.1871097     -1801.3904      290.1003       3657.1584      2683.2073    
    412000  -1810.63        9.0971472     -1801.5328      287.25956      3621.3466      2683.2073    
    413000  -1811.3657      8.771603      -1802.5941      276.97989      3491.7556      2683.2073    
    414000  -1810.1224      8.9175283     -1801.2049      281.58776      3549.8448      2683.2073    
    415000  -1810.6698      9.3655559     -1801.3043      295.73507      3728.1934      2683.2073    
    416000  -1811.2269      9.1490954     -1802.0778      288.89993      3642.0259      2683.2073    
    417000  -1811.0264      9.4239305     -1801.6025      297.57836      3751.4308      2683.2073    
    418000  -1811.5291      9.5380789     -1801.9911      301.18282      3796.8705      2683.2073    
    419000  -1811.9537      8.1434749     -1803.8102      257.14557      3241.7135      2683.2073    
    420000  -1812.0014      8.5375302     -1803.4639      269.58861      3398.5771      2683.2073    
    421000  -1811.4557      9.0192235     -1802.4365      284.79898      3590.3271      2683.2073    
    422000  -1811.1723      8.5688347     -1802.6035      270.5771       3411.0386      2683.2073    
    423000  -1812.1718      9.1798091     -1802.992       289.86977      3654.2522      2683.2073    
    424000  -1810.2964      9.1816207     -1801.1148      289.92698      3654.9734      2683.2073    
    425000  -1810.9482      8.3027111     -1802.6455      262.17375      3305.1015      2683.2073    
    426000  -1811.2222      9.5476101     -1801.6746      301.48378      3800.6646      2683.2073    
    427000  -1811.2354      9.1608987     -1802.0745      289.27264      3646.7245      2683.2073    
    428000  -1810.5673      8.5258306     -1802.0414      269.21917      3393.9198      2683.2073    
    429000  -1810.3382      9.0717932     -1801.2664      286.45897      3611.2538      2683.2073    
    430000  -1810.8765      8.1607727     -1802.7158      257.69178      3248.5994      2683.2073    
    431000  -1810.811       8.3985209     -1802.4125      265.19912      3343.2409      2683.2073    
    432000  -1810.5804      9.1749444     -1801.4054      289.71616      3652.3157      2683.2073    
    433000  -1810.3608      8.9007656     -1801.46        281.05844      3543.172       2683.2073    
    434000  -1810.6447      8.7506857     -1801.894       276.31939      3483.4289      2683.2073    
    435000  -1810.066       9.8843853     -1800.1816      312.11809      3934.7264      2683.2073    
    436000  -1810.8578      9.5243393     -1801.3334      300.74896      3791.4011      2683.2073    
    437000  -1810.0843      8.2093301     -1801.875       259.22507      3267.9288      2683.2073    
    438000  -1810.9541      8.1812052     -1802.7729      258.33697      3256.733       2683.2073    
    439000  -1810.9561      8.4452255     -1802.5109      266.67391      3361.8329      2683.2073    
    440000  -1810.4568      8.7732127     -1801.6836      277.03072      3492.3964      2683.2073    
    441000  -1812.172       9.1363809     -1803.0356      288.49844      3636.9645      2683.2073    
    442000  -1810.9914      9.3473889     -1801.644       295.16142      3720.9615      2683.2073    
    443000  -1810.4224      8.3943261     -1802.028       265.06666      3341.5711      2683.2073    
    444000  -1811.1781      8.6453282     -1802.5328      272.99253      3441.4888      2683.2073    
    445000  -1810.3881      8.7882645     -1801.5998      277.50601      3498.3881      2683.2073    
    446000  -1809.8611      9.1248894     -1800.7362      288.13558      3632.3901      2683.2073    
    447000  -1810.0151      9.0780105     -1800.9371      286.65529      3613.7288      2683.2073    
    448000  -1810.6444      8.2047141     -1802.4397      259.07931      3266.0913      2683.2073    
    449000  -1809.5586      8.9530373     -1800.6056      282.70902      3563.98        2683.2073    
    450000  -1809.2175      9.0386083     -1800.1789      285.41109      3598.0437      2683.2073    
    451000  -1810.7253      8.9906306     -1801.7347      283.8961       3578.945       2683.2073    
    452000  -1810.9391      8.475557      -1802.4635      267.63168      3373.9071      2683.2073    
    453000  -1812.0009      9.7956325     -1802.2052      309.31556      3899.3961      2683.2073    
    454000  -1810.8089      8.9797506     -1801.8291      283.55255      3574.6139      2683.2073    
    455000  -1809.9326      9.2951546     -1800.6375      293.51202      3700.1684      2683.2073    
    456000  -1810.6333      8.6972532     -1801.9361      274.63216      3462.1588      2683.2073    
    457000  -1810.8627      8.4760553     -1802.3866      267.64742      3374.1054      2683.2073    
    458000  -1810.636       9.4186019     -1801.2174      297.4101       3749.3097      2683.2073    
    459000  -1810.9658      8.6272602     -1802.3385      272.422        3434.2963      2683.2073    
    460000  -1810.5049      8.5332878     -1801.9716      269.45464      3396.8883      2683.2073    
    461000  -1809.9305      8.7233366     -1801.2072      275.45579      3472.5419      2683.2073    
    462000  -1811.2546      10.193369     -1801.0612      321.87483      4057.7249      2683.2073    
    463000  -1810.984       8.9438218     -1802.0402      282.41803      3560.3116      2683.2073    
    464000  -1811.3652      9.4769542     -1801.8883      299.25269      3772.5382      2683.2073    
    465000  -1810.7494      8.0382933     -1802.7111      253.82426      3199.8434      2683.2073    
    466000  -1811.5616      8.8538594     -1802.7077      279.57729      3524.4998      2683.2073    
    467000  -1810.791       9.225076      -1801.566       291.29916      3672.2719      2683.2073    
    468000  -1810.5271      9.1283827     -1801.3987      288.24589      3633.7807      2683.2073    
    469000  -1810.1865      8.3008029     -1801.8857      262.11349      3304.3418      2683.2073    
    470000  -1811.2936      9.241109      -1802.0525      291.80543      3678.6542      2683.2073    
    471000  -1810.6883      8.2307097     -1802.4576      259.90017      3276.4395      2683.2073    
    472000  -1811.2871      8.8613625     -1802.4258      279.81422      3527.4866      2683.2073    
    473000  -1810.1215      9.0883951     -1801.0331      286.9832       3617.8626      2683.2073    
    474000  -1810.7671      9.0489176     -1801.7182      285.73662      3602.1476      2683.2073    
    475000  -1810.6403      9.2236958     -1801.4166      291.25558      3671.7224      2683.2073    
    476000  -1810.793       10.660703     -1800.1323      336.63177      4243.7588      2683.2073    
    477000  -1811.129       8.9895484     -1802.1395      283.86193      3578.5142      2683.2073    
    478000  -1811.7276      8.9217965     -1802.8058      281.72254      3551.5439      2683.2073    
    479000  -1811.3589      8.0162466     -1803.3426      253.12809      3191.0671      2683.2073    
    480000  -1809.998       9.1736181     -1800.8243      289.67428      3651.7877      2683.2073    
    481000  -1809.7228      7.9235628     -1801.7993      250.20143      3154.172       2683.2073    
    482000  -1811.8746      8.6261085     -1803.2485      272.38563      3433.8379      2683.2073    
    483000  -1810.7729      8.6516051     -1802.1213      273.19073      3443.9874      2683.2073    
    484000  -1811.6958      8.5953886     -1803.1004      271.41559      3421.6091      2683.2073    
    485000  -1811.1608      8.5095982     -1802.6512      268.7066       3387.458       2683.2073    
    486000  -1811.445       9.7045516     -1801.7404      306.43951      3863.1391      2683.2073    
    487000  -1810.2896      8.8455327     -1801.444       279.31436      3521.1852      2683.2073    
    488000  -1810.5096      8.5730442     -1801.9365      270.71002      3412.7143      2683.2073    
    489000  -1811.2746      8.5366989     -1802.7379      269.56235      3398.2461      2683.2073    
    490000  -1809.7332      9.0977859     -1800.6355      287.27973      3621.6009      2683.2073    
    491000  -1810.0865      8.8288185     -1801.2577      278.78658      3514.5316      2683.2073    
    492000  -1810.1485      8.4372617     -1801.7112      266.42244      3358.6627      2683.2073    
    493000  -1810.4391      9.0317378     -1801.4074      285.19414      3595.3087      2683.2073    
    494000  -1811.3744      8.74962       -1802.6247      276.28574      3483.0047      2683.2073    
    495000  -1810.6995      9.4556295     -1801.2438      298.57932      3764.0494      2683.2073    
    496000  -1811.0332      8.7012273     -1802.332       274.75765      3463.7408      2683.2073    
    497000  -1810.9497      9.0961562     -1801.8535      287.22827      3620.9521      2683.2073    
    498000  -1809.3757      8.2438617     -1801.1319      260.31547      3281.675       2683.2073    
    499000  -1811.2274      8.8238051     -1802.4036      278.62827      3512.5359      2683.2073    
    500000  -1810.2154      8.5968255     -1801.6186      271.46096      3422.181       2683.2073    
    501000  -1810.8602      7.9566866     -1802.9035      251.24737      3167.3578      2683.2073    
    502000  -1811.5452      8.6652164     -1802.88        273.62053      3449.4057      2683.2073    
    503000  -1811.7808      9.5889322     -1802.1919      302.7886       3817.1139      2683.2073    
    504000  -1810.2767      8.7272517     -1801.5495      275.57942      3474.1005      2683.2073    
    505000  -1810.4425      8.9649489     -1801.4775      283.08515      3568.7217      2683.2073    
    506000  -1811.301       10.078727     -1801.2223      318.2548       4012.089       2683.2073    
    507000  -1811.7484      8.9598285     -1802.7885      282.92347      3566.6834      2683.2073    
    508000  -1810.1774      8.5999572     -1801.5775      271.55985      3423.4277      2683.2073    
    509000  -1811.1881      9.5234815     -1801.6646      300.72187      3791.0596      2683.2073    
    510000  -1810.5479      9.0675281     -1801.4804      286.32429      3609.556       2683.2073    
    511000  -1811.1891      8.6710201     -1802.518       273.8038       3451.7161      2683.2073    
    512000  -1810.886       7.7843659     -1803.1016      245.80602      3098.7612      2683.2073    
    513000  -1810.9061      9.1477341     -1801.7584      288.85694      3641.484       2683.2073    
    514000  -1811.0548      9.0124252     -1802.0424      284.58431      3587.6209      2683.2073    
    515000  -1810.9051      9.5687984     -1801.3363      302.15284      3809.0991      2683.2073    
    516000  -1811.9254      9.077602      -1802.8478      286.64239      3613.5661      2683.2073    
    517000  -1811.5485      8.2538362     -1803.2947      260.63043      3285.6456      2683.2073    
    518000  -1810.7027      9.5244003     -1801.1783      300.75089      3791.4254      2683.2073    
    519000  -1810.9994      9.8396141     -1801.1598      310.70436      3916.9041      2683.2073    
    520000  -1811.4418      9.1979676     -1802.2439      290.44316      3661.4807      2683.2073    
    521000  -1811.1943      8.0071378     -1803.1872      252.84046      3187.4411      2683.2073    
    522000  -1812.0613      8.7957341     -1803.2656      277.74188      3501.3616      2683.2073    
    523000  -1810.4708      8.9176459     -1801.5531      281.59147      3549.8916      2683.2073    
    524000  -1811.7328      9.4866626     -1802.2461      299.55925      3776.4029      2683.2073    
    525000  -1811.5244      9.3368999     -1802.1875      294.83021      3716.7861      2683.2073    
    526000  -1811.3709      10.443514     -1800.9274      329.77362      4157.3014      2683.2073    
    527000  -1810.7561      9.136142      -1801.6199      288.4909       3636.8694      2683.2073    
    528000  -1812.3552      8.6696205     -1803.6855      273.7596       3451.1589      2683.2073    
    529000  -1810.9182      8.9911736     -1801.927       283.91325      3579.1611      2683.2073    
    530000  -1811.3001      8.9197874     -1802.3803      281.6591       3550.7441      2683.2073    
    531000  -1810.7188      9.9718235     -1800.747       314.87912      3969.5333      2683.2073    
    532000  -1811.3458      9.3019875     -1802.0438      293.72778      3702.8884      2683.2073    
    533000  -1810.7339      8.8959679     -1801.8379      280.90695      3541.2621      2683.2073    
    534000  -1810.4874      8.9088815     -1801.5785      281.31472      3546.4027      2683.2073    
    535000  -1810.8956      9.4133412     -1801.4822      297.24399      3747.2155      2683.2073    
    536000  -1811.4107      9.0437393     -1802.367       285.57311      3600.0862      2683.2073    
    537000  -1810.7341      8.5883817     -1802.1457      271.19433      3418.8198      2683.2073    
    538000  -1809.4155      9.5095731     -1799.906       300.28269      3785.523       2683.2073    
    539000  -1810.0425      10.160852     -1799.8817      320.84805      4044.7808      2683.2073    
    540000  -1810.5155      9.0338859     -1801.4816      285.26197      3596.1638      2683.2073    
    541000  -1810.069       9.0827668     -1800.9862      286.80548      3615.6221      2683.2073    
    542000  -1810.3976      9.3909566     -1801.0066      296.53715      3738.3047      2683.2073    
    543000  -1809.8243      8.8659159     -1800.9584      279.958        3529.2992      2683.2073    
    544000  -1810.738       9.1832087     -1801.5548      289.97712      3655.6055      2683.2073    
    545000  -1810.1533      9.5489778     -1800.6043      301.52697      3801.209       2683.2073    
    546000  -1809.8979      7.948126      -1801.9498      250.97706      3163.95        2683.2073    
    547000  -1810.2032      9.5219468     -1800.6812      300.67341      3790.4487      2683.2073    
    548000  -1809.8735      8.735724      -1801.1378      275.84695      3477.4731      2683.2073    
    549000  -1810.372       8.7148322     -1801.6571      275.18725      3469.1566      2683.2073    
    550000  -1810.1572      9.4094092     -1800.7478      297.11983      3745.6503      2683.2073    
    551000  -1809.2523      9.4072468     -1799.845       297.05155      3744.7895      2683.2073    
    552000  -1808.1003      8.9275244     -1799.1728      281.90341      3553.824       2683.2073    
    553000  -1808.8561      9.4303217     -1799.4258      297.78018      3753.975       2683.2073    
    554000  -1809.8121      8.3880584     -1801.424       264.86875      3339.0761      2683.2073    
    555000  -1809.6634      8.9775148     -1800.6859      283.48195      3573.7239      2683.2073    
    556000  -1810.4805      7.9426465     -1802.5378      250.80403      3161.7688      2683.2073    
    557000  -1811.1573      8.8265448     -1802.3307      278.71478      3513.6265      2683.2073    
    558000  -1811.4866      7.7212159     -1803.7653      243.81194      3073.6228      2683.2073    
    559000  -1810.7955      8.9526073     -1801.8429      282.69544      3563.8089      2683.2073    
    560000  -1810.8333      9.5085125     -1801.3248      300.2492       3785.1008      2683.2073    
    561000  -1810.8825      8.5458907     -1802.3366      269.8526       3401.9052      2683.2073    
    562000  -1810.5427      7.9461257     -1802.5965      250.91389      3163.1537      2683.2073    
    563000  -1809.8327      8.5026476     -1801.33        268.48712      3384.6912      2683.2073    
    564000  -1810.3484      8.7848645     -1801.5636      277.39865      3497.0347      2683.2073    
    565000  -1809.4068      9.1531342     -1800.2537      289.02746      3643.6336      2683.2073    
    566000  -1809.9294      9.2510575     -1800.6783      292.11957      3682.6144      2683.2073    
    567000  -1809.8976      7.5674261     -1802.3302      238.95574      3012.4029      2683.2073    
    568000  -1811.2961      8.3925737     -1802.9035      265.01133      3340.8735      2683.2073    
    569000  -1809.7919      8.8537791     -1800.9381      279.57476      3524.4678      2683.2073    
    570000  -1809.422       9.0953342     -1800.3266      287.20232      3620.6249      2683.2073    
    571000  -1810.0827      8.7392758     -1801.3434      275.9591       3478.8869      2683.2073    
    572000  -1812.1601      9.7137153     -1802.4464      306.72887      3866.7869      2683.2073    
    573000  -1810.5424      8.5572145     -1801.9852      270.21017      3406.4129      2683.2073    
    574000  -1810.2608      9.1452779     -1801.1156      288.77938      3640.5062      2683.2073    
    575000  -1809.8884      9.4566703     -1800.4318      298.61218      3764.4637      2683.2073    
    576000  -1810.7745      7.949854      -1802.8247      251.03162      3164.6379      2683.2073    
    577000  -1809.6363      8.5428751     -1801.0935      269.75738      3400.7047      2683.2073    
    578000  -1810.3202      8.6897875     -1801.6304      274.39641      3459.1869      2683.2073    
    579000  -1810.6307      8.8366023     -1801.7941      279.03237      3517.6302      2683.2073    
    580000  -1812.3794      8.4745804     -1803.9048      267.60085      3373.5183      2683.2073    
    581000  -1811.1425      8.9882278     -1802.1543      283.82023      3577.9885      2683.2073    
    582000  -1811.0636      9.554623      -1801.5089      301.70522      3803.4562      2683.2073    
    583000  -1811.9452      9.5708476     -1802.3744      302.21755      3809.9149      2683.2073    
    584000  -1809.6876      9.0913626     -1800.5963      287.07691      3619.0439      2683.2073    
    585000  -1809.403       7.7731847     -1801.6298      245.45296      3094.3103      2683.2073    
    586000  -1810.4006      8.2273321     -1802.1733      259.79351      3275.095       2683.2073    
    587000  -1809.9203      8.0049633     -1801.9154      252.7718       3186.5755      2683.2073    
    588000  -1809.8751      8.9734386     -1800.9016      283.35323      3572.1013      2683.2073    
    589000  -1810.1031      8.6096053     -1801.4935      271.86451      3427.2684      2683.2073    
    590000  -1809.7009      9.383212      -1800.3177      296.2926       3735.2218      2683.2073    
    591000  -1809.9148      8.7132576     -1801.2015      275.13753      3468.5297      2683.2073    
    592000  -1811.4087      8.9147455     -1802.494       281.49989      3548.7371      2683.2073    
    593000  -1810.6808      9.6299293     -1801.0508      304.08316      3833.4338      2683.2073    
    594000  -1810.588       9.2968154     -1801.2912      293.56447      3700.8295      2683.2073    
    595000  -1811.0149      8.7425343     -1802.2724      276.06199      3480.1841      2683.2073    
    596000  -1811.2489      8.7714515     -1802.4775      276.97511      3491.6953      2683.2073    
    597000  -1810.6274      9.1160661     -1801.5114      287.85696      3628.8777      2683.2073    
    598000  -1810.3034      8.4393786     -1801.864       266.48928      3359.5054      2683.2073    
    599000  -1810.4549      8.2301264     -1802.2248      259.88175      3276.2073      2683.2073    
    600000  -1810.3676      8.8320393     -1801.5355      278.88828      3515.8138      2683.2073    
    601000  -1812.3707      7.9393985     -1804.4313      250.70147      3160.4758      2683.2073    
    602000  -1811.0101      9.298767      -1801.7114      293.62609      3701.6064      2683.2073    
    603000  -1810.3198      9.0070934     -1801.3127      284.41595      3585.4984      2683.2073    
    604000  -1812.2136      8.7911086     -1803.4225      277.59582      3499.5203      2683.2073    
    605000  -1810.6196      9.271592      -1801.348       292.76799      3690.7887      2683.2073    
    606000  -1812.006       8.6650827     -1803.3409      273.61631      3449.3525      2683.2073    
    607000  -1811.7351      8.7111644     -1803.024       275.07143      3467.6965      2683.2073    
    608000  -1810.4741      8.5449465     -1801.9292      269.82279      3401.5293      2683.2073    
    609000  -1810.6781      8.7962171     -1801.8819      277.75713      3501.5538      2683.2073    
    610000  -1810.1963      9.152129      -1801.0441      288.99572      3643.2335      2683.2073    
    611000  -1811.401       9.0842021     -1802.3168      286.8508       3616.1935      2683.2073    
    612000  -1811.3357      8.2935053     -1803.0422      261.88306      3301.4369      2683.2073    
    613000  -1811.1937      8.1421862     -1803.0515      257.10487      3241.2005      2683.2073    
    614000  -1811.4422      8.627025      -1802.8152      272.41457      3434.2027      2683.2073    
    615000  -1811.7519      8.4774967     -1803.2744      267.69293      3374.6792      2683.2073    
    616000  -1812.2218      8.8251605     -1803.3967      278.67107      3513.0755      2683.2073    
    617000  -1811.0719      8.8293994     -1802.2425      278.80492      3514.7629      2683.2073    
    618000  -1811.8628      8.9701022     -1802.8926      283.24788      3570.7732      2683.2073    
    619000  -1812.4017      8.6633872     -1803.7383      273.56277      3448.6776      2683.2073    
    620000  -1810.7985      8.4849791     -1802.3136      267.9292       3377.6578      2683.2073    
    621000  -1811.8001      8.9489171     -1802.8512      282.57892      3562.3399      2683.2073    
    622000  -1810.239       8.7467043     -1801.4923      276.19367      3481.844       2683.2073    
    623000  -1810.9452      8.4843607     -1802.4608      267.90968      3377.4116      2683.2073    
    624000  -1811.3197      9.13993       -1802.1798      288.61051      3638.3773      2683.2073    
    625000  -1810.8297      8.5895236     -1802.2402      271.23039      3419.2743      2683.2073    
    626000  -1810.4587      8.0457062     -1802.413       254.05834      3202.7943      2683.2073    
    627000  -1811.3533      9.1408016     -1802.2125      288.63804      3638.7243      2683.2073    
    628000  -1810.6694      9.1267246     -1801.5426      288.19353      3633.1206      2683.2073    
    629000  -1810.5062      7.5901849     -1802.916       239.67439      3021.4626      2683.2073    
    630000  -1810.9779      8.6564695     -1802.3215      273.34434      3445.9238      2683.2073    
    631000  -1810.7887      9.2354771     -1801.5532      291.62759      3676.4123      2683.2073    
    632000  -1809.5289      9.0144844     -1800.5144      284.64933      3588.4406      2683.2073    
    633000  -1810.5037      8.2869136     -1802.2168      261.67491      3298.8129      2683.2073    
    634000  -1809.3776      9.4812296     -1799.8964      299.38769      3774.2402      2683.2073    
    635000  -1810.0607      9.5620438     -1800.4987      301.93955      3806.4103      2683.2073    
    636000  -1809.238       8.5785119     -1800.6595      270.88268      3414.8909      2683.2073    
    637000  -1809.2364      9.216403      -1800.02        291.02529      3668.8193      2683.2073    
    638000  -1810.7954      8.5271704     -1802.2682      269.26147      3394.4531      2683.2073    
    639000  -1810.2381      8.5067483     -1801.7314      268.61661      3386.3236      2683.2073    
    640000  -1810.2689      8.7995518     -1801.4693      277.86243      3502.8813      2683.2073    
    641000  -1810.35        8.9851335     -1801.3648      283.72252      3576.7567      2683.2073    
    642000  -1810.7497      8.9734353     -1801.7762      283.35313      3572.1         2683.2073    
    643000  -1810.3041      9.6305771     -1800.6735      304.10362      3833.6917      2683.2073    
    644000  -1810.0109      9.4350445     -1800.5759      297.92931      3755.8551      2683.2073    
    645000  -1810.8657      8.4041012     -1802.4616      265.37533      3345.4623      2683.2073    
    646000  -1810.4239      9.0902909     -1801.3336      287.04306      3618.6173      2683.2073    
    647000  -1810.3676      8.5166499     -1801.851       268.92927      3390.2651      2683.2073    
    648000  -1809.5336      9.1674436     -1800.3661      289.47931      3649.3298      2683.2073    
    649000  -1810.4629      8.6574671     -1801.8054      273.37584      3446.3209      2683.2073    
    650000  -1809.6484      8.5243297     -1801.1241      269.17177      3393.3223      2683.2073    
    651000  -1811.4546      9.4421832     -1802.0124      298.15473      3758.6968      2683.2073    
    652000  -1810.4015      9.239972      -1801.1616      291.76953      3678.2016      2683.2073    
    653000  -1809.8635      9.1132988     -1800.7502      287.76958      3627.7761      2683.2073    
    654000  -1809.5245      8.5902737     -1800.9343      271.25408      3419.5729      2683.2073    
    655000  -1810.0809      9.2573031     -1800.8236      292.31679      3685.1007      2683.2073    
    656000  -1810.7447      9.6661776     -1801.0785      305.22777      3847.8633      2683.2073    
    657000  -1811.2495      8.9367342     -1802.3128      282.19422      3557.4902      2683.2073    
    658000  -1811.0388      8.7650268     -1802.2738      276.77224      3489.1378      2683.2073    
    659000  -1810.2615      8.6542378     -1801.6072      273.27387      3445.0354      2683.2073    
    660000  -1810.3052      9.6859551     -1800.6192      305.85228      3855.7363      2683.2073    
    661000  -1810.0648      9.2168757     -1800.8479      291.04022      3669.0075      2683.2073    
    662000  -1811.2912      9.5293216     -1801.7618      300.90629      3793.3844      2683.2073    
    663000  -1810.1521      7.6182296     -1802.5339      240.55996      3032.6265      2683.2073    
    664000  -1809.3638      8.9233835     -1800.4405      281.77265      3552.1756      2683.2073    
    665000  -1809.3768      8.7281206     -1800.6486      275.60685      3474.4463      2683.2073    
    666000  -1809.0142      8.5770873     -1800.4371      270.83769      3414.3238      2683.2073    
    667000  -1809.3166      9.2100975     -1800.1066      290.82618      3666.3093      2683.2073    
    668000  -1810.6271      9.367135      -1801.26        295.78494      3728.822       2683.2073    
    669000  -1810.5536      8.4323547     -1802.1212      266.26749      3356.7093      2683.2073    
    670000  -1810.15        8.2058413     -1801.9441      259.1149       3266.54        2683.2073    
    671000  -1810.8455      9.4066617     -1801.4388      297.03307      3744.5566      2683.2073    
    672000  -1810.4902      9.167976      -1801.3222      289.49612      3649.5418      2683.2073    
    673000  -1810.0958      9.0949212     -1801.0009      287.18927      3620.4605      2683.2073    
    674000  -1811.0344      8.6804301     -1802.3539      274.10094      3455.462       2683.2073    
    675000  -1810.6979      8.3832097     -1802.3147      264.71564      3337.1459      2683.2073    
    676000  -1810.8724      8.9794427     -1801.8929      283.54282      3574.4914      2683.2073    
    677000  -1810.1701      8.8896126     -1801.2805      280.70627      3538.7323      2683.2073    
    678000  -1810.0322      7.9145397     -1802.1177      249.91651      3150.5802      2683.2073    
    679000  -1811.2521      8.3556402     -1802.8965      263.84509      3326.1712      2683.2073    
    680000  -1811.0644      8.6201528     -1802.4442      272.19757      3431.4671      2683.2073    
    681000  -1810.1505      9.0986507     -1801.0519      287.30704      3621.9451      2683.2073    
    682000  -1812.2323      9.2965998     -1802.9357      293.55766      3700.7437      2683.2073    
    683000  -1811.9463      8.5099396     -1803.4363      268.71738      3387.594       2683.2073    
    684000  -1811.0156      8.8891591     -1802.1264      280.69195      3538.5517      2683.2073    
    685000  -1810.9698      8.7245106     -1802.2453      275.49286      3473.0093      2683.2073    
    686000  -1811.5035      8.372756      -1803.1308      264.38555      3332.9846      2683.2073    
    687000  -1811.5989      8.6534998     -1802.9454      273.25056      3444.7417      2683.2073    
    688000  -1811.4013      9.7685194     -1801.6328      308.45941      3888.6031      2683.2073    
    689000  -1811.0441      8.4767517     -1802.5674      267.66941      3374.3827      2683.2073    
    690000  -1811.3445      8.8097696     -1802.5347      278.18508      3506.9487      2683.2073    
    691000  -1809.7878      9.2334695     -1800.5543      291.5642       3675.6131      2683.2073    
    692000  -1810.4391      9.2183578     -1801.2207      291.08702      3669.5975      2683.2073    
    693000  -1811.3862      8.3447291     -1803.0414      263.50055      3321.8278      2683.2073    
    694000  -1810.8528      9.0357807     -1801.817       285.3218       3596.9181      2683.2073    
    695000  -1809.8659      9.0294745     -1800.8364      285.12267      3594.4078      2683.2073    
    696000  -1810.0785      9.2853732     -1800.7932      293.20315      3696.2746      2683.2073    
    697000  -1810.0485      8.8044165     -1801.2441      278.01604      3504.8178      2683.2073    
    698000  -1810.317       7.710615      -1802.6064      243.4772       3069.4028      2683.2073    
    699000  -1811.549       9.4717213     -1802.0773      299.08745      3770.4552      2683.2073    
    700000  -1810.2691      8.5880687     -1801.6811      271.18445      3418.6952      2683.2073    
    701000  -1810.5425      9.0938539     -1801.4487      287.15557      3620.0356      2683.2073    
    702000  -1810.2942      9.1980929     -1801.0961      290.44712      3661.5305      2683.2073    
    703000  -1810.3894      9.251688      -1801.1377      292.13948      3682.8654      2683.2073    
    704000  -1810.9946      9.0942057     -1801.9004      287.16668      3620.1757      2683.2073    
    705000  -1810.0697      9.0892095     -1800.9805      287.00892      3618.1868      2683.2073    
    706000  -1810.0998      9.604625      -1800.4951      303.28413      3823.3608      2683.2073    
    707000  -1811.6098      8.8076902     -1802.8021      278.11941      3506.121       2683.2073    
    708000  -1811.8763      9.1082317     -1802.768       287.60958      3625.7591      2683.2073    
    709000  -1810.7807      9.5791239     -1801.2016      302.47889      3813.2095      2683.2073    
    710000  -1811.1602      9.1457268     -1802.0145      288.79356      3640.6849      2683.2073    
    711000  -1810.8701      9.0316658     -1801.8384      285.19187      3595.2801      2683.2073    
    712000  -1811.6978      8.8528298     -1802.845       279.54478      3524.0899      2683.2073    
    713000  -1811.0631      8.0798939     -1802.9832      255.13787      3216.4035      2683.2073    
    714000  -1810.772       9.3609455     -1801.411       295.58949      3726.3581      2683.2073    
    715000  -1811.2793      9.3944998     -1801.8848      296.64903      3739.7152      2683.2073    
    716000  -1811.4726      8.5715368     -1802.9011      270.66243      3412.1143      2683.2073    
    717000  -1811.3058      8.2344532     -1803.0714      260.01838      3277.9297      2683.2073    
    718000  -1810.3572      8.0939531     -1802.2632      255.58182      3222.0001      2683.2073    
    719000  -1809.6015      9.1822419     -1800.4193      289.94659      3655.2207      2683.2073    
    720000  -1810.7409      9.0761858     -1801.6647      286.59767      3613.0024      2683.2073    
    721000  -1811.0057      8.0237406     -1802.9819      253.36473      3194.0503      2683.2073    
    722000  -1811.1142      9.5546266     -1801.5596      301.70534      3803.4577      2683.2073    
    723000  -1810.2381      9.1150777     -1801.123       287.82576      3628.4843      2683.2073    
    724000  -1811.5954      9.3834842     -1802.2119      296.3012       3735.3302      2683.2073    
    725000  -1810.8636      9.2643082     -1801.5993      292.53799      3687.8892      2683.2073    
    726000  -1810.8293      9.1619078     -1801.6673      289.3045       3647.1262      2683.2073    
    727000  -1810.4505      8.8366031     -1801.6139      279.03239      3517.6305      2683.2073    
    728000  -1811.89        8.871079      -1803.0189      280.12104      3531.3545      2683.2073    
    729000  -1810.8856      8.433327      -1802.4523      266.29819      3357.0964      2683.2073    
[...]
   1644000  -1810.2432      9.3246634     -1800.9186      294.44382      3711.9151      2683.2073    
   1645000  -1810.4212      8.8971313     -1801.5241      280.94369      3541.7253      2683.2073    
   1646000  -1809.8212      9.1741441     -1800.647       289.69089      3651.9971      2683.2073    
   1647000  -1810.7374      8.7864617     -1801.9509      277.44909      3497.6705      2683.2073    
   1648000  -1811.118       8.8546901     -1802.2633      279.60353      3524.8305      2683.2073    
   1649000  -1809.6562      9.0048816     -1800.6513      284.3461       3584.618       2683.2073    
   1650000  -1809.9512      8.1043607     -1801.8468      255.91046      3226.1431      2683.2073    
   1651000  -1810.2566      9.0433032     -1801.2133      285.55934      3599.9126      2683.2073    
   1652000  -1809.3712      9.250897      -1800.1203      292.1145       3682.5505      2683.2073    
   1653000  -1809.3228      8.5635434     -1800.7593      270.41002      3408.9323      2683.2073    
   1654000  -1810.9738      8.3549959     -1802.6188      263.82474      3325.9147      2683.2073    
   1655000  -1810.9755      8.7109268     -1802.2646      275.06393      3467.6019      2683.2073    
   1656000  -1809.8516      8.8877684     -1800.9639      280.64803      3537.9981      2683.2073    
   1657000  -1809.7452      9.8053525     -1799.9399      309.62248      3903.2654      2683.2073    
   1658000  -1810.2         8.6959867     -1801.504       274.59217      3461.6547      2683.2073    
   1659000  -1809.2238      9.2106396     -1800.0131      290.8433       3666.5251      2683.2073    
   1660000  -1811.1213      9.1489977     -1801.9723      288.89684      3641.987       2683.2073    
   1661000  -1811.2286      9.2902204     -1801.9384      293.35621      3698.2042      2683.2073    
   1662000  -1811.6406      8.6636882     -1802.9769      273.57228      3448.7974      2683.2073    
   1663000  -1810.8881      8.6738931     -1802.2142      273.89452      3452.8597      2683.2073    
   1664000  -1811.3841      9.2691858     -1802.1149      292.69201      3689.8308      2683.2073    
   1665000  -1811.0103      9.2329687     -1801.7773      291.54838      3675.4137      2683.2073    
   1666000  -1811.2474      8.9587486     -1802.2886      282.88937      3566.2536      2683.2073    
   1667000  -1811.1616      9.0378988     -1802.1237      285.38868      3597.7613      2683.2073    
   1668000  -1810.5723      10.189479     -1800.3828      321.75201      4056.1767      2683.2073    
   1669000  -1811.2023      9.3848263     -1801.8174      296.34357      3735.8644      2683.2073    
   1670000  -1811.1829      8.8941335     -1802.2887      280.84903      3540.5319      2683.2073    
   1671000  -1810.2849      8.3796345     -1801.9052      264.60275      3335.7228      2683.2073    
   1672000  -1811.5328      9.32274       -1802.2101      294.38308      3711.1494      2683.2073    
   1673000  -1810.77        8.894829      -1801.8752      280.87099      3540.8088      2683.2073    
   1674000  -1810.7003      8.8559379     -1801.8443      279.64293      3525.3272      2683.2073    
   1675000  -1810.3201      9.4299144     -1800.8902      297.76732      3753.8129      2683.2073    
   1676000  -1810.6392      9.4241554     -1801.215       297.58546      3751.5204      2683.2073    
   1677000  -1810.712       8.0235737     -1802.6884      253.35946      3193.9838      2683.2073    
   1678000  -1810.9152      8.5591786     -1802.356       270.27219      3407.1948      2683.2073    
   1679000  -1809.8737      9.2814588     -1800.5923      293.07955      3694.7164      2683.2073    
   1680000  -1810.0126      8.5611041     -1801.4515      270.333        3407.9613      2683.2073    
   1681000  -1810.0029      8.362237      -1801.6407      264.05339      3328.7972      2683.2073    
   1682000  -1809.9035      9.0503673     -1800.8531      285.7824       3602.7247      2683.2073    
   1683000  -1811.0909      8.4107131     -1802.6802      265.58412      3348.0944      2683.2073    
   1684000  -1810.4727      8.6412428     -1801.8314      272.86353      3439.8625      2683.2073    
   1685000  -1809.8183      8.7062534     -1801.112       274.91636      3465.7415      2683.2073    
   1686000  -1810.3627      8.3873151     -1801.9754      264.84528      3338.7802      2683.2073    
   1687000  -1810.6939      9.4393547     -1801.2545      298.06541      3757.5708      2683.2073    
   1688000  -1810.6853      8.1715903     -1802.5138      258.03336      3252.9056      2683.2073    
   1689000  -1810.4618      8.810386      -1801.6514      278.20454      3507.1941      2683.2073    
   1690000  -1811.1978      8.8202454     -1802.3775      278.51587      3511.1189      2683.2073    
   1691000  -1809.9803      8.722659      -1801.2576      275.43439      3472.2722      2683.2073    
   1692000  -1811.0449      8.1730608     -1802.8719      258.0798       3253.4909      2683.2073    
   1693000  -1810.1267      8.1891587     -1801.9376      258.58812      3259.8991      2683.2073    
   1694000  -1809.7033      9.0198915     -1800.6834      284.82007      3590.593       2683.2073    
   1695000  -1810.2781      8.8316509     -1801.4464      278.87602      3515.6592      2683.2073    
   1696000  -1809.6671      8.8555304     -1800.8116      279.63006      3525.165       2683.2073    
   1697000  -1810.8435      9.065219      -1801.7783      286.25137      3608.6368      2683.2073    
   1698000  -1811.1265      9.5007255     -1801.6257      300.00331      3782.001       2683.2073    
   1699000  -1810.4189      9.0353129     -1801.3836      285.30703      3596.7319      2683.2073    
   1700000  -1811.54        8.6035652     -1802.9365      271.67378      3424.864       2683.2073    
   1701000  -1810.6296      8.9754982     -1801.6541      283.41827      3572.9212      2683.2073    
   1702000  -1810.1491      8.9930902     -1801.156       283.97377      3579.9241      2683.2073    
   1703000  -1810.8504      9.4627705     -1801.3876      298.80481      3766.8921      2683.2073    
   1704000  -1810.8755      8.9496595     -1801.9259      282.60236      3562.6354      2683.2073    
   1705000  -1811.0465      9.3265753     -1801.7199      294.50419      3712.6762      2683.2073    
   1706000  -1810.7252      9.4357552     -1801.2895      297.95175      3756.138       2683.2073    
   1707000  -1810.331       8.6413785     -1801.6896      272.86781      3439.9165      2683.2073    
   1708000  -1810.5521      9.2301835     -1801.3219      291.46044      3674.305       2683.2073    
   1709000  -1809.9019      8.9569711     -1800.9449      282.83324      3565.546       2683.2073    
   1710000  -1808.3564      8.2331973     -1800.1232      259.97872      3277.4297      2683.2073    
   1711000  -1810.4709      8.9574818     -1801.5134      282.84937      3565.7493      2683.2073    
   1712000  -1811.084       8.2496531     -1802.8343      260.49834      3283.9804      2683.2073    
   1713000  -1810.5727      9.3856675     -1801.1871      296.37014      3736.1993      2683.2073    
   1714000  -1809.8573      9.3139388     -1800.5434      294.10517      3707.6459      2683.2073    
   1715000  -1808.9151      8.489139      -1800.426       268.06056      3379.3138      2683.2073    
   1716000  -1809.9951      9.7695448     -1800.2255      308.49179      3889.0113      2683.2073    
   1717000  -1810.9772      9.0635412     -1801.9136      286.19839      3607.9689      2683.2073    
   1718000  -1810.793       8.5547589     -1802.2383      270.13263      3405.4354      2683.2073    
   1719000  -1811.5325      9.1995941     -1802.3329      290.49452      3662.1282      2683.2073    
   1720000  -1810.0995      8.8209513     -1801.2786      278.53816      3511.3999      2683.2073    
   1721000  -1810.3399      9.2477919     -1801.0921      292.01646      3681.3145      2683.2073    
   1722000  -1809.1349      8.3823649     -1800.7525      264.68897      3336.8096      2683.2073    
   1723000  -1810.7165      8.5681659     -1802.1483      270.55598      3410.7724      2683.2073    
   1724000  -1811.0339      10.247531     -1800.7863      323.58512      4079.2858      2683.2073    
   1725000  -1810.4178      8.2106133     -1802.2071      259.26559      3268.4397      2683.2073    
   1726000  -1811.0776      8.3000902     -1802.7775      262.09099      3304.0582      2683.2073    
   1727000  -1810.8596      8.1873972     -1802.6722      258.53249      3259.1979      2683.2073    
   1728000  -1810.7975      9.0753965     -1801.7221      286.57274      3612.6882      2683.2073    
   1729000  -1809.9449      8.8359021     -1801.109       279.01026      3517.3514      2683.2073    
   1730000  -1811.2278      8.2428385     -1802.9849      260.28316      3281.2677      2683.2073    
   1731000  -1811.5865      8.0575063     -1803.529       254.43094      3207.4916      2683.2073    
   1732000  -1810.7014      9.358184      -1801.3432      295.50229      3725.2588      2683.2073    
   1733000  -1810.7094      9.7248374     -1800.9846      307.08007      3871.2144      2683.2073    
   1734000  -1809.6221      8.2380329     -1801.3841      260.13141      3279.3547      2683.2073    
   1735000  -1810.3043      8.0219191     -1802.2824      253.30721      3193.3252      2683.2073    
   1736000  -1809.1617      9.7143012     -1799.4474      306.74737      3867.0202      2683.2073    
   1737000  -1811.2343      9.1721676     -1802.0621      289.62847      3651.2103      2683.2073    
   1738000  -1810.9466      9.8472172     -1801.0994      310.94444      3919.9307      2683.2073    
   1739000  -1811.2002      9.164211      -1802.0359      289.37723      3648.043       2683.2073    
   1740000  -1811.9231      8.5875527     -1803.3355      271.16816      3418.4898      2683.2073    
   1741000  -1810.6271      8.92668       -1801.7005      281.87674      3553.4879      2683.2073    
   1742000  -1811.2201      9.6116527     -1801.6084      303.50605      3826.1583      2683.2073    
   1743000  -1810.4821      9.1403109     -1801.3418      288.62254      3638.529       2683.2073    
   1744000  -1810.2803      7.789588      -1802.4907      245.97092      3100.84        2683.2073    
   1745000  -1810.3384      8.5430124     -1801.7954      269.76172      3400.7594      2683.2073    
   1746000  -1809.2646      9.6932175     -1799.5714      306.08161      3858.6272      2683.2073    
   1747000  -1810.0035      8.9114828     -1801.092       281.39686      3547.4382      2683.2073    
   1748000  -1809.8078      8.9491592     -1800.8586      282.58656      3562.4363      2683.2073    
   1749000  -1809.9016      9.4873906     -1800.4142      299.58224      3776.6927      2683.2073    
   1750000  -1810.5092      8.8515172     -1801.6577      279.50333      3523.5674      2683.2073    
   1751000  -1810.7974      8.7197345     -1802.0777      275.34205      3471.1081      2683.2073    
   1752000  -1809.9733      9.1903429     -1800.7829      290.2024       3658.4455      2683.2073    
   1753000  -1810.8195      9.2271145     -1801.5923      291.36353      3673.0833      2683.2073    
   1754000  -1809.864       8.8652938     -1800.9987      279.93836      3529.0516      2683.2073    
   1755000  -1808.5583      9.1169155     -1799.4414      287.88379      3629.2159      2683.2073    
   1756000  -1809.7743      9.1219762     -1800.6523      288.04359      3631.2304      2683.2073    
   1757000  -1810.4054      8.5305052     -1801.8749      269.36678      3395.7806      2683.2073    
   1758000  -1810.0933      8.5747673     -1801.5185      270.76444      3413.4002      2683.2073    
   1759000  -1811.2751      8.5337725     -1802.7414      269.46995      3397.0812      2683.2073    
   1760000  -1809.8691      7.9633907     -1801.9057      251.45907      3170.0265      2683.2073    
   1761000  -1810.1863      9.3191085     -1800.8671      294.26841      3709.7038      2683.2073    
   1762000  -1810.2005      8.0202984     -1802.1802      253.25603      3192.68        2683.2073    
   1763000  -1810.8824      8.7914174     -1802.0909      277.60557      3499.6432      2683.2073    
   1764000  -1811.0567      9.5084969     -1801.5482      300.24871      3785.0946      2683.2073    
   1765000  -1809.5778      9.7635051     -1799.8143      308.30107      3886.607       2683.2073    
   1766000  -1808.5148      8.9274927     -1799.5873      281.90241      3553.8114      2683.2073    
   1767000  -1810.464       8.7284767     -1801.7355      275.6181       3474.5881      2683.2073    
   1768000  -1810.1665      8.8060021     -1801.3605      278.06611      3505.449       2683.2073    
   1769000  -1809.776       8.6269929     -1801.149       272.41356      3434.1899      2683.2073    
   1770000  -1810.4639      8.2596974     -1802.2042      260.81551      3287.9788      2683.2073    
   1771000  -1810.3868      8.8675727     -1801.5193      280.01032      3529.9587      2683.2073    
   1772000  -1809.8422      8.5629446     -1801.2792      270.39111      3408.6939      2683.2073    
   1773000  -1810.6856      8.3090615     -1802.3766      262.37427      3307.6294      2683.2073    
   1774000  -1809.8277      8.2888293     -1801.5388      261.7354       3299.5755      2683.2073    
   1775000  -1809.4585      9.026155      -1800.4324      285.01785      3593.0864      2683.2073    
   1776000  -1809.834       8.9262978     -1800.9077      281.86467      3553.3357      2683.2073    
   1777000  -1809.2962      8.6101148     -1800.686       271.8806       3427.4712      2683.2073    
   1778000  -1811.3032      7.7335605     -1803.5697      244.20175      3078.5369      2683.2073    
   1779000  -1809.2912      9.2877952     -1800.0034      293.27964      3697.2388      2683.2073    
   1780000  -1809.4856      8.5959381     -1800.8897      271.43294      3421.8278      2683.2073    
   1781000  -1809.1895      8.2922564     -1800.8972      261.84362      3300.9397      2683.2073    
   1782000  -1809.822       8.4320479     -1801.39        266.2578       3356.5872      2683.2073    
   1783000  -1809.3029      8.9742398     -1800.3287      283.37853      3572.4202      2683.2073    
   1784000  -1811.5309      8.9930862     -1802.5378      283.97364      3579.9225      2683.2073    
   1785000  -1811.3345      9.0321947     -1802.3023      285.20857      3595.4906      2683.2073    
   1786000  -1810.7627      8.4918519     -1802.2708      268.14623      3380.3937      2683.2073    
   1787000  -1809.4199      8.1118494     -1801.3081      256.14693      3229.1242      2683.2073    
   1788000  -1809.2708      9.349914      -1799.9209      295.24115      3721.9667      2683.2073    
   1789000  -1810.9377      8.4441678     -1802.4935      266.64051      3361.4118      2683.2073    
   1790000  -1810.7574      8.4551209     -1802.3023      266.98638      3365.772       2683.2073    
   1791000  -1810.3352      8.8447084     -1801.4905      279.28833      3520.857       2683.2073    
   1792000  -1810.9825      8.9243074     -1802.0582      281.80182      3552.5434      2683.2073    
   1793000  -1810.0532      8.460521      -1801.5927      267.15689      3367.9216      2683.2073    
   1794000  -1811.0156      7.9029987     -1803.1126      249.55208      3145.986       2683.2073    
   1795000  -1810.1821      8.8807713     -1801.3014      280.42709      3535.2127      2683.2073    
   1796000  -1810.6899      9.4518829     -1801.238       298.46101      3762.558       2683.2073    
   1797000  -1809.7884      8.6510547     -1801.1373      273.17335      3443.7683      2683.2073    
   1798000  -1809.2342      8.4274072     -1800.8068      266.11126      3354.7399      2683.2073    
   1799000  -1810.9629      8.2371165     -1802.7258      260.10248      3278.9899      2683.2073    
   1800000  -1811.4336      9.3676645     -1802.0659      295.80166      3729.0327      2683.2073    
   1801000  -1811.1073      9.2512419     -1801.856       292.1254       3682.6878      2683.2073    
   1802000  -1810.684       8.9240148     -1801.7599      281.79258      3552.4269      2683.2073    
   1803000  -1810.8602      8.7464163     -1802.1138      276.18458      3481.7294      2683.2073    
   1804000  -1811.1983      8.674012      -1802.5243      273.89827      3452.907       2683.2073    
   1805000  -1811.1626      9.2588572     -1801.9038      292.36586      3685.7193      2683.2073    
   1806000  -1809.571       8.8735472     -1800.6975      280.19897      3532.337       2683.2073    
   1807000  -1809.687       8.9429534     -1800.7441      282.39061      3559.9659      2683.2073    
   1808000  -1810.8285      8.9195011     -1801.909       281.65005      3550.6301      2683.2073    
   1809000  -1810.6859      8.5762376     -1802.1097      270.81086      3413.9855      2683.2073    
   1810000  -1810.4844      9.576431      -1800.908       302.39385      3812.1375      2683.2073    
   1811000  -1811.1914      9.2354004     -1801.956       291.62517      3676.3817      2683.2073    
   1812000  -1811.5123      8.7283047     -1802.784       275.61267      3474.5196      2683.2073    
   1813000  -1810.8888      7.8160929     -1803.0728      246.80786      3111.3909      2683.2073    
   1814000  -1809.6496      9.0020223     -1800.6476      284.25582      3583.4798      2683.2073    
   1815000  -1810.5267      8.9679942     -1801.5587      283.18132      3569.934       2683.2073    
   1816000  -1811.6588      9.1235066     -1802.5353      288.09191      3631.8396      2683.2073    
   1817000  -1811.0318      9.4622905     -1801.5695      298.78965      3766.701       2683.2073    
   1818000  -1811.0534      9.2492031     -1801.8042      292.06102      3681.8762      2683.2073    
   1819000  -1810.4613      8.6541383     -1801.8072      273.27072      3444.9958      2683.2073    
   1820000  -1809.7001      8.8357331     -1800.8644      279.00492      3517.2842      2683.2073    
   1821000  -1809.9913      8.3921546     -1801.5992      264.9981       3340.7067      2683.2073    
   1822000  -1808.9585      9.6825873     -1799.2759      305.74594      3854.3956      2683.2073    
   1823000  -1808.888       8.4456976     -1800.4423      266.68882      3362.0208      2683.2073    
   1824000  -1810.0344      9.2613793     -1800.773       292.4455       3686.7233      2683.2073    
   1825000  -1811.1624      8.6720664     -1802.4903      273.83684      3452.1326      2683.2073    
   1826000  -1810.874       8.5330789     -1802.3409      269.44805      3396.8051      2683.2073    
   1827000  -1810.9665      9.2443779     -1801.7221      291.90865      3679.9554      2683.2073    
   1828000  -1810.6752      9.4546974     -1801.2205      298.54989      3763.6784      2683.2073    
   1829000  -1809.9009      9.4095798     -1800.4914      297.12521      3745.7182      2683.2073    
   1830000  -1810.7573      9.4174621     -1801.3398      297.37411      3748.8559      2683.2073    
   1831000  -1809.69        8.5915011     -1801.0985      271.29284      3420.0615      2683.2073    
   1832000  -1810.7757      8.3293523     -1802.4463      263.015        3315.7067      2683.2073    
   1833000  -1810.5601      8.6419863     -1801.9181      272.887        3440.1584      2683.2073    
   1834000  -1810.9104      9.7217163     -1801.1887      306.98151      3869.9719      2683.2073    
   1835000  -1810.7703      8.8613428     -1801.909       279.8136       3527.4788      2683.2073    
   1836000  -1810.6451      9.617924      -1801.0272      303.70407      3828.6548      2683.2073    
   1837000  -1809.9703      9.2390023     -1800.7313      291.73891      3677.8156      2683.2073    
   1838000  -1810.9515      9.4167295     -1801.5348      297.35098      3748.5643      2683.2073    
   1839000  -1810.2735      8.7628165     -1801.5107      276.70244      3488.2579      2683.2073    
