246
Lattice="10.140377177804453 0.0 0.0 0.0 8.781824239934606 0.0 0.0 0.0 30.1311271579" Properties=species:S:1:pos:R:3:momenta:R:3:forces:R:3 target_atoms="0 1 2 3 4 5 6 7 8 9 10 11 12 13 14 15 16 17 18 19 20 21 22 23 24 25 26 27 28 29 30 31 32 33 34 35 36 37 38 39 40 41 42 43 44 45 46 47 48 49 50 51 52 53 54 55 56 57 58 59 60 61 62 63 64 65 66 67 68 69 70 71 72 73 74 75 76 77 78 79 80 81 82 83 84 85 86 87 88 89 90 91 92 93 94 95 96 97 98 99 100 101 102 103 104 105 106 107 108 109 110 111 112 113 114 115 116 117 118 119 120 121 122 123 124 125 126 127 128 129 130 131 132 133 134 135 136 137 138 139 140 141 142 143 144 145 146 147 148 149 150 151 152 153 154 155 156 157 158 159 160 161 162 163 164 165 166 167 168 169 170 171 172 173 174 175 176 177 178 179 180 181 182 183 184 185 186 187 188 189 190 191 192 193 194 195 196 197 198 199 200 201 202 203 204 205 206 207 208 209 210 211 212 213 214 215 216 217 218 219 220 221 222 223 224 225 226 227 228 229 230 231 232 233 234 235 236 237 238 239 240 241 242 243 244 245" step=0 energy=-1803.6592119458921 pbc="T T T"
Cu       7.09486000       1.15331000       9.91446000       0.00000000       0.00000000       0.00000000      -0.22462100      -0.11736200      -0.05625760
Cu       9.56065000       1.14886000       9.88736000       0.00000000       0.00000000       0.00000000       0.20502100       0.09262740       0.07419060
Cu       2.11967000       1.08259000       9.82137000       0.00000000       0.00000000       0.00000000      -0.72570800       0.58531800       0.30394200
Cu       4.55900000       1.14096000      10.04450000       0.00000000       0.00000000       0.00000000      -0.04387870       0.34241100      -0.61240300
Cu       8.38191000       3.28269000      10.00290000       0.00000000       0.00000000       0.00000000      -0.17470900       0.24122300      -0.33296200
Cu       0.67952400       3.39873000       9.95680000       0.00000000       0.00000000       0.00000000       0.56425100      -0.24628200      -0.15079600
Cu       3.26208000       3.28396000       9.89686000       0.00000000       0.00000000       0.00000000      -0.26019300       0.23215700       0.10548700
Cu       5.83568000       3.39686000       9.95491000       0.00000000       0.00000000       0.00000000      -0.27087100      -0.61127200      -0.14366000
Cu       9.60694000       5.51450000       9.93416000       0.00000000       0.00000000       0.00000000      -0.05095690       0.39367200       0.01196860
Cu       1.97710000       5.60970000       9.91235000       0.00000000       0.00000000       0.00000000      -0.00447786      -0.21962000       0.30107200
Cu       4.52465000       5.46244000       9.92274000       0.00000000       0.00000000       0.00000000      -0.00036541       0.55617600      -0.01647500
Cu       7.10235000       5.41085000       9.91376000       0.00000000       0.00000000       0.00000000       0.13334500       0.65225000      -0.08350070
Cu       0.65225900       7.86821000       9.96162000       0.00000000       0.00000000       0.00000000      -0.05281950      -0.77730700      -0.20129300
Cu       3.28288000       7.75576000       9.87023000       0.00000000       0.00000000       0.00000000      -0.02597330      -0.43873200       0.16183500
Cu       5.74922000       7.81497000       9.88204000       0.00000000       0.00000000       0.00000000       0.34055100      -0.50873700      -0.01315600
Cu       8.27249000       7.75461000       9.89355000       0.00000000       0.00000000       0.00000000       0.11366200      -0.16415100       0.17288600
Cu       5.83013000       1.82029000      11.92550000       0.00000000       0.00000000       0.00000000      -0.48132100       0.28087600       0.53558000
Cu       8.22711000       1.85204000      11.99430000       0.00000000       0.00000000       0.00000000       0.42371000       0.00929058       0.00918990
Cu       0.59103500       1.91791000      11.92340000       0.00000000       0.00000000       0.00000000       0.67911000      -0.13629400       0.04219480
Cu       3.22690000       1.85791000      12.00680000       0.00000000       0.00000000       0.00000000      -0.21814900      -0.01535970      -0.18679500
Cu       7.05718000       3.98413000      11.99070000       0.00000000       0.00000000       0.00000000      -0.23103700       0.62239200       0.09624870
Cu       9.57865000       4.11995000      12.00510000       0.00000000       0.00000000       0.00000000      -0.28180500      -0.12598600      -0.06115870
Cu       1.94694000       4.06054000      12.06860000       0.00000000       0.00000000       0.00000000       0.01297930       0.02971930      -0.80401400
Cu       4.40270000       4.10040000      11.90800000       0.00000000       0.00000000       0.00000000       0.58661800      -0.27783000       0.47051100
Cu       8.32824000       6.35139000      11.95270000       0.00000000       0.00000000       0.00000000       0.27215400      -0.64620600      -0.05875930
Cu       0.71099800       6.24955000      12.03500000       0.00000000       0.00000000       0.00000000      -0.07848560       0.29944900      -0.53242200
Cu       3.27994000       6.31963000      11.97900000       0.00000000       0.00000000       0.00000000      -0.17017800      -0.23432700      -0.21662700
Cu       5.89415000       6.26818000      11.84040000       0.00000000       0.00000000       0.00000000      -0.78564900      -0.42958700       0.47906700
Cu       9.53689000       8.59755000      12.08480000       0.00000000       0.00000000       0.00000000       0.09518240      -0.88416600      -0.88745200
Cu       1.93697000       8.44318000      11.85690000       0.00000000       0.00000000       0.00000000       0.22368500       0.24193500       0.73751500
Cu       4.55119000       8.45543000      11.94890000       0.00000000       0.00000000       0.00000000      -0.36735600      -0.22889200       0.35367300
Cu       7.04005000       8.35901000      12.06400000       0.00000000       0.00000000       0.00000000      -0.10120500       0.83411100      -0.70648700
Cu       5.70396000       0.36590900      14.03060000       0.00000000       0.00000000       0.00000000       0.00000000       0.00000000       0.00000000
Cu       8.23906000       0.36590900      14.03060000       0.00000000       0.00000000       0.00000000       0.00000000       0.00000000       0.00000000
Cu       0.63377400       0.36590900      14.03060000       0.00000000       0.00000000       0.00000000       0.00000000       0.00000000       0.00000000
Cu       3.16887000       0.36590900      14.03060000       0.00000000       0.00000000       0.00000000       0.00000000       0.00000000       0.00000000
Cu       6.97151000       2.56137000      14.03060000       0.00000000       0.00000000       0.00000000       0.00000000       0.00000000       0.00000000
Cu       9.50660000       2.56137000      14.03060000       0.00000000       0.00000000       0.00000000       0.00000000       0.00000000       0.00000000
Cu       1.90132000       2.56137000      14.03060000       0.00000000       0.00000000       0.00000000       0.00000000       0.00000000       0.00000000
Cu       4.43642000       2.56137000      14.03060000       0.00000000       0.00000000       0.00000000       0.00000000       0.00000000       0.00000000
Cu       8.23906000       4.75682000      14.03060000       0.00000000       0.00000000       0.00000000       0.00000000       0.00000000       0.00000000
Cu       0.63377400       4.75682000      14.03060000       0.00000000       0.00000000       0.00000000       0.00000000       0.00000000       0.00000000
Cu       3.16887000       4.75682000      14.03060000       0.00000000       0.00000000       0.00000000       0.00000000       0.00000000       0.00000000
Cu       5.70396000       4.75682000      14.03060000       0.00000000       0.00000000       0.00000000       0.00000000       0.00000000       0.00000000
Cu       9.50660000       6.95228000      14.03060000       0.00000000       0.00000000       0.00000000       0.00000000       0.00000000       0.00000000
Cu       1.90132000       6.95228000      14.03060000       0.00000000       0.00000000       0.00000000       0.00000000       0.00000000       0.00000000
Cu       4.43642000       6.95228000      14.03060000       0.00000000       0.00000000       0.00000000       0.00000000       0.00000000       0.00000000
Cu       6.97151000       6.95228000      14.03060000       0.00000000       0.00000000       0.00000000       0.00000000       0.00000000       0.00000000
Cu       6.97151000       1.09773000      16.10050000       0.00000000       0.00000000       0.00000000       0.00000000       0.00000000       0.00000000
Cu       9.50660000       1.09773000      16.10050000       0.00000000       0.00000000       0.00000000       0.00000000       0.00000000       0.00000000
Cu       1.90132000       1.09773000      16.10050000       0.00000000       0.00000000       0.00000000       0.00000000       0.00000000       0.00000000
Cu       4.43642000       1.09773000      16.10050000       0.00000000       0.00000000       0.00000000       0.00000000       0.00000000       0.00000000
Cu       8.23906000       3.29318000      16.10050000       0.00000000       0.00000000       0.00000000       0.00000000       0.00000000       0.00000000
Cu       0.63377400       3.29318000      16.10050000       0.00000000       0.00000000       0.00000000       0.00000000       0.00000000       0.00000000
Cu       3.16887000       3.29318000      16.10050000       0.00000000       0.00000000       0.00000000       0.00000000       0.00000000       0.00000000
Cu       5.70396000       3.29318000      16.10050000       0.00000000       0.00000000       0.00000000       0.00000000       0.00000000       0.00000000
Cu       9.50660000       5.48864000      16.10050000       0.00000000       0.00000000       0.00000000       0.00000000       0.00000000       0.00000000
Cu       1.90132000       5.48864000      16.10050000       0.00000000       0.00000000       0.00000000       0.00000000       0.00000000       0.00000000
Cu       4.43642000       5.48864000      16.10050000       0.00000000       0.00000000       0.00000000       0.00000000       0.00000000       0.00000000
Cu       6.97151000       5.48864000      16.10050000       0.00000000       0.00000000       0.00000000       0.00000000       0.00000000       0.00000000
Cu       0.63377400       7.68410000      16.10050000       0.00000000       0.00000000       0.00000000       0.00000000       0.00000000       0.00000000
Cu       3.16887000       7.68410000      16.10050000       0.00000000       0.00000000       0.00000000       0.00000000       0.00000000       0.00000000
Cu       5.70396000       7.68410000      16.10050000       0.00000000       0.00000000       0.00000000       0.00000000       0.00000000       0.00000000
Cu       8.23906000       7.68410000      16.10050000       0.00000000       0.00000000       0.00000000       0.00000000       0.00000000       0.00000000
Cu       5.67119000       1.75258000      18.19210000       0.00000000       0.00000000       0.00000000      -0.04770900       0.36577700      -0.01138980
Cu       8.28841000       1.84456000      18.15300000       0.00000000       0.00000000       0.00000000      -1.30184000      -0.26692300      -0.44213400
Cu       0.50471800       1.89892000      18.10030000       0.00000000       0.00000000       0.00000000       0.68764600      -0.37959100       0.29977900
Cu       2.98694000       1.78017000      18.19270000       0.00000000       0.00000000       0.00000000       1.03872000       0.26169900      -0.13999500
Cu       6.88025000       4.03168000      18.05580000       0.00000000       0.00000000       0.00000000       0.11651700      -0.29628700       0.99421200
Cu       9.46127000       4.11040000      18.09900000       0.00000000       0.00000000       0.00000000       0.08190110      -0.39958100       0.46559800
Cu       1.89427000       3.99735000      18.12800000       0.00000000       0.00000000       0.00000000      -0.42839700       0.10449300       0.31499600
Cu       4.33318000       3.97043000      18.10670000       0.00000000       0.00000000       0.00000000       0.58415200       0.00863243       0.69161500
Cu       8.20890000       6.16101000      18.07330000       0.00000000       0.00000000       0.00000000       0.12893500       0.44662200       0.74821800
Cu       0.67697400       6.15849000      18.03970000       0.00000000       0.00000000       0.00000000      -0.16181500       0.47474000       0.86057600
Cu       3.19018000       6.16586000      18.13910000       0.00000000       0.00000000       0.00000000       0.05526110       0.04454120       0.22915700
Cu       5.73046000       6.27137000      18.12330000       0.00000000       0.00000000       0.00000000      -0.33645200      -0.21751100       0.34327900
Cu       9.46883000       8.35731000      18.14790000       0.00000000       0.00000000       0.00000000       0.24603600       0.42834300       0.08847630
Cu       1.86563000       8.48354000      18.14890000       0.00000000       0.00000000       0.00000000      -0.32740500      -0.67843900       0.07941480
Cu       4.35534000       8.35690000      18.28520000       0.00000000       0.00000000       0.00000000       0.37189000       0.25746200      -0.93164700
Cu       7.01580000       8.44845000      18.11690000       0.00000000       0.00000000       0.00000000      -0.19770100      -0.08518380       0.29024800
Cu       5.74222000       0.26499000      20.19640000       0.00000000       0.00000000       0.00000000      -0.06545540       0.58907600       0.25314000
Cu       8.25768000       0.44665500      20.36400000       0.00000000       0.00000000       0.00000000      -0.10324100      -0.44652300      -0.55878200
Cu       0.68226700       0.44026200      20.24920000       0.00000000       0.00000000       0.00000000      -0.41948600      -0.38591300      -0.21582800
Cu       3.18275000       0.25892100      20.24460000       0.00000000       0.00000000       0.00000000      -0.30319000       0.77995400       0.15627300
Cu       6.88079000       2.51744000      20.38600000       0.00000000       0.00000000       0.00000000      -0.10846000       0.24563800      -0.63299800
Cu       9.32602000       2.56764000      20.03550000       0.00000000       0.00000000       0.00000000       0.89762400       0.49855200       1.02606000
Cu       1.87260000       2.47838000      20.19280000       0.00000000       0.00000000       0.00000000      -0.40524800       0.13688400       0.12161900
Cu       4.39933000       2.48089000      20.24150000       0.00000000       0.00000000       0.00000000       0.01924890       0.17609200      -0.21918700
Cu       8.12687000       4.71075000      20.23840000       0.00000000       0.00000000       0.00000000       0.09903350       0.35520100      -0.35907900
Cu       0.49822800       4.84720000      20.27730000       0.00000000       0.00000000       0.00000000       0.10145600      -0.46267000      -0.53015200
Cu       2.95083000       4.55771000      20.28300000       0.00000000       0.00000000       0.00000000       0.90416700       0.73884200      -0.44018700
Cu       5.66474000       4.88849000      20.23210000       0.00000000       0.00000000       0.00000000      -0.32820200      -0.57325300      -0.37538000
Cu       9.58887000       7.04341000      20.12610000       0.00000000       0.00000000       0.00000000      -0.33136400      -0.30166300       0.07398970
Cu       1.99103000       6.90710000      20.10890000       0.00000000       0.00000000       0.00000000      -0.62141300       0.00452255       0.14662000
Cu       4.39785000       7.01524000      20.30100000       0.00000000       0.00000000       0.00000000       0.40616300      -0.92269200      -0.02040940
Cu       6.99646000       7.01667000      20.15690000       0.00000000       0.00000000       0.00000000       0.27241000      -0.36567600       0.13789400
O        2.63970000       8.46869000       3.82270000       0.00000000       0.00000000       0.00000000       0.15220300      -1.14288000       0.23302400
H        2.39455000       0.58947000       3.70983000       0.00000000       0.00000000       0.00000000      -0.33397100       1.29359000      -0.04789490
H        2.36861000       8.11347000       4.71453000       0.00000000       0.00000000       0.00000000      -0.09165760       0.29643000      -0.31716900
O        3.14383000       3.10386000      26.73060000       0.00000000       0.00000000       0.00000000       0.10541400      -0.10076800       1.76756000
H        3.07003000       3.22945000      25.79810000       0.00000000       0.00000000       0.00000000      -0.16961900       0.10750500      -1.93494000
H        3.85526000       3.67625000      27.07730000       0.00000000       0.00000000       0.00000000      -0.03707120      -0.15394100       0.39452100
O        7.18879000       8.13562000       5.61145000       0.00000000       0.00000000       0.00000000      -1.48556000      -1.32861000       1.47451000
H        1.67357000       3.03510000      27.42200000       0.00000000       0.00000000       0.00000000      -1.30653000      -0.26228500       1.01549000
H        6.68671000       7.31809000       5.92162000       0.00000000       0.00000000       0.00000000       1.14457000       0.52813800      -0.26600600
O        7.27518000       6.70442000      27.61390000       0.00000000       0.00000000       0.00000000      -0.15264600       0.23163100      -0.32478800
H        6.63601000       6.39395000      26.93220000       0.00000000       0.00000000       0.00000000       0.41834100       0.03962330      -0.04908160
H        7.83450000       7.41681000      27.19140000       0.00000000       0.00000000       0.00000000       0.03563250      -0.63524400      -0.17593000
O        9.74127000       5.30851000      24.43890000       0.00000000       0.00000000       0.00000000       0.69584100      -1.26033000      -1.58618000
H        9.55770000       6.14139000      23.93280000       0.00000000       0.00000000       0.00000000      -0.16406000      -0.59068100       0.07289570
H        9.96762000       4.56019000      23.75220000       0.00000000       0.00000000       0.00000000      -0.77122100       1.45851000       1.62386000
O        0.91144600       4.62295000       0.77188800       0.00000000       0.00000000       0.00000000       0.55303100       0.67143600       0.26124300
H        3.50760000       7.82832000      29.21750000       0.00000000       0.00000000       0.00000000       0.69605400      -0.07599450      -0.39543700
H        1.83838000       4.34018000       0.92395400       0.00000000       0.00000000       0.00000000      -0.28658500       0.37597900      -0.20736400
O        6.56027000       3.20959000       1.18410000       0.00000000       0.00000000       0.00000000      -1.82962000       0.27326300       0.49027000
H        2.10224000       4.20780000       3.65875000       0.00000000       0.00000000       0.00000000       0.30071000       1.16263000       0.38580400
H        7.15680000       2.50082000       0.96841900       0.00000000       0.00000000       0.00000000       0.86933600       0.27561200      -0.36683100
O        2.93926000       7.94560000      29.97150000       0.00000000       0.00000000       0.00000000      -1.01960000       0.02596880       0.72165300
H        1.25335000       7.71508000      29.18430000       0.00000000       0.00000000       0.00000000      -1.09281000       0.00910595      -0.01197780
H        3.29109000       7.41918000       0.61847700       0.00000000       0.00000000       0.00000000      -0.43220800       0.26281900      -0.51458400
O        3.50536000       6.98324000      25.00220000       0.00000000       0.00000000       0.00000000      -0.32380200      -1.02455000      -1.12191000
H        3.22135000       6.25653000      24.35670000       0.00000000       0.00000000       0.00000000       0.11410000       0.92854600       0.70502200
H        1.26141000       5.69210000      23.02020000       0.00000000       0.00000000       0.00000000       0.03520750       0.00198479       0.06345650
O        2.17032000       5.36637000      23.10030000       0.00000000       0.00000000       0.00000000       0.09114900       0.09556030       1.06312000
H        2.56223000       5.61928000      22.26160000       0.00000000       0.00000000       0.00000000       0.41285300       0.25854200      -0.96876800
H        5.62555000       6.89081000       2.01669000       0.00000000       0.00000000       0.00000000      -0.91461400       0.05632540       0.31181800
O        0.35200600       7.70647000      28.72370000       0.00000000       0.00000000       0.00000000       1.70961000      -0.39164800      -0.11480000
H        0.62977000       7.39751000      27.80960000       0.00000000       0.00000000       0.00000000      -0.44396100       0.12554300       0.54371800
H        2.22851000       6.74642000       6.56358000       0.00000000       0.00000000       0.00000000      -0.97563100       1.34654000      -0.98810200
O        1.10812000       6.75705000      26.23800000       0.00000000       0.00000000       0.00000000       0.54875800      -0.16960800      -0.33475800
H        0.67987500       6.03814000      25.69120000       0.00000000       0.00000000       0.00000000       0.32683900       0.55385200       0.23033100
H        2.03797000       6.91223000      25.88990000       0.00000000       0.00000000       0.00000000      -0.89891400      -0.30953600       0.32023900
O        2.38712000       5.13402000       3.95941000       0.00000000       0.00000000       0.00000000      -0.10025800      -1.45965000      -1.16528000
H        0.91504400       5.58335000       1.05676000       0.00000000       0.00000000       0.00000000      -0.09550730      -1.06117000      -0.03458830
H        2.05806000       5.15578000       4.84908000       0.00000000       0.00000000       0.00000000      -0.34600100       0.19634800       0.71348700
O        2.47320000       2.94013000       6.31128000       0.00000000       0.00000000       0.00000000       0.17611300      -0.74061800       0.73933500
H        2.81349000       2.12519000       6.78675000       0.00000000       0.00000000       0.00000000      -0.23857000       0.84917300      -0.58799700
H        1.59376000       3.07136000       6.69951000       0.00000000       0.00000000       0.00000000       0.10287000       0.19374000      -0.19211000
O        0.79495000       2.82846000      27.95430000       0.00000000       0.00000000       0.00000000       0.39975700       2.72533000      -0.01242760
H        6.99484000       4.08994000       1.22136000       0.00000000       0.00000000       0.00000000       0.69704500      -0.47273900      -0.23612700
H        0.45564300       3.73972000      28.30580000       0.00000000       0.00000000       0.00000000       0.75472200      -1.81339000      -0.85682000
O        3.60919000       3.71504000       0.75130600       0.00000000       0.00000000       0.00000000      -1.80326000      -2.10944000       0.26754600
H        4.48060000       3.62253000       1.11991000       0.00000000       0.00000000       0.00000000       0.86687100      -0.02603860       0.34341300
O        5.99526000       6.14653000      25.24350000       0.00000000       0.00000000       0.00000000      -0.13521000      -0.41360300       0.24206300
H        6.35751000       6.95212000      24.85030000       0.00000000       0.00000000       0.00000000       0.13521700       0.17932300      -0.40038500
H        6.08291000       5.44102000      24.52820000       0.00000000       0.00000000       0.00000000       0.12773500       0.57322900       0.07184750
O        0.12030400       2.82854000      23.09410000       0.00000000       0.00000000       0.00000000       1.78053000      -0.41762600       0.22187300
H        0.25362200       2.52005000      22.17030000       0.00000000       0.00000000       0.00000000      -0.52351800       0.17307100      -0.17475000
H        1.08916000       2.72858000      23.38350000       0.00000000       0.00000000       0.00000000      -1.30924000       0.32216400       0.31005300
O        7.80273000       2.35368000      24.11100000       0.00000000       0.00000000       0.00000000      -2.53630000      -0.22702000       1.54181000
H        8.63931000       2.25809000      23.67660000       0.00000000       0.00000000       0.00000000       1.10716000      -0.41571000      -0.98769300
H        7.11570000       1.66176000      23.90990000       0.00000000       0.00000000       0.00000000       1.50976000       0.45720600      -0.23285100
H        3.21415000       2.77336000       0.86921500       0.00000000       0.00000000       0.00000000       0.78972300       1.95851000      -0.47536500
O        6.04740000       7.74527000       1.96999000       0.00000000       0.00000000       0.00000000       2.70833000      -0.45535100      -0.63718400
H        5.43697000       8.45295000       2.08743000       0.00000000       0.00000000       0.00000000      -1.17183000       0.99034300       0.51846300
H        0.20417200       4.53732000       7.63250000       0.00000000       0.00000000       0.00000000       0.03021470       0.74042600      -1.21046000
O        0.11144900       4.76295000       6.64551000       0.00000000       0.00000000       0.00000000       1.20722000       0.00273896       1.90416000
H        9.51481000       4.21129000       6.44460000       0.00000000       0.00000000       0.00000000      -1.31426000      -0.75195800      -0.59371100
H        4.46981000       6.79296000      25.14300000       0.00000000       0.00000000       0.00000000      -0.24886500      -0.22921400       0.18185500
O        8.97012000       2.08186000       3.92480000       0.00000000       0.00000000       0.00000000      -0.23776900       1.61218000      -0.77172400
H        8.75692000       1.93342000       2.98283000       0.00000000       0.00000000       0.00000000       0.18728400       0.53249000      -0.35031900
H        9.06766000       1.19425000       4.17560000       0.00000000       0.00000000       0.00000000       0.15489300      -2.17410000       1.34668000
O        1.78920000       7.51774000       6.05825000       0.00000000       0.00000000       0.00000000       2.10041000      -1.73493000       0.87493200
H        0.91936800       7.65684000       6.40404000       0.00000000       0.00000000       0.00000000      -1.22387000       0.16622800       0.50226100
O        3.99599000       0.46244800      27.62710000       0.00000000       0.00000000       0.00000000       2.11088000      -0.50514600       0.65926900
H        4.95227000       0.57872700      27.96110000       0.00000000       0.00000000       0.00000000      -1.84357000       0.01482180      -0.55201700
H        8.94280000       8.07000000      22.34560000       0.00000000       0.00000000       0.00000000       0.40691600      -0.55133600       0.05291490
O        9.15919000       7.60189000      23.19250000       0.00000000       0.00000000       0.00000000      -0.21909900       0.66056100      -0.44997500
H        8.15892000       7.96427000       4.49801000       0.00000000       0.00000000       0.00000000      -0.85293400      -0.26360200      -0.49936000
H        8.52331000       8.01130000      23.78100000       0.00000000       0.00000000       0.00000000      -0.19300400       0.08690200       0.61866700
O        8.45228000       7.81429000       3.55968000       0.00000000       0.00000000       0.00000000       0.53697900       0.19395400      -1.52386000
H        3.75951000       1.33443000      27.30940000       0.00000000       0.00000000       0.00000000      -0.15294600       0.59885000      -0.18411100
H        7.67717000       7.87653000       2.94163000       0.00000000       0.00000000       0.00000000       0.27870400      -0.05452540       1.16504000
O        1.63458000       1.67616000       0.20357900       0.00000000       0.00000000       0.00000000       0.39014200      -0.54389500       1.39662000
H        1.28766000       2.22708000      29.63390000       0.00000000       0.00000000       0.00000000       0.13066400      -0.08834630      -1.35950000
H        2.00954000       0.81779200      30.01830000       0.00000000       0.00000000       0.00000000      -0.21798800       0.66834500       0.00094359
O        4.95205000       1.54322000       2.61959000       0.00000000       0.00000000       0.00000000      -2.38484000      -2.13779000       0.97345400
H        5.58187000       2.15577000       2.32309000       0.00000000       0.00000000       0.00000000       1.55590000       1.73320000      -0.23155100
H        5.96868000       8.14683000      22.80190000       0.00000000       0.00000000       0.00000000       0.16992300       0.73308500       1.15205000
O        6.15328000       8.51319000      23.72790000       0.00000000       0.00000000       0.00000000      -0.23865300       0.05072160      -0.86172500
H        3.36577000       6.11447000       2.55152000       0.00000000       0.00000000       0.00000000      -0.71082400      -1.89418000       0.82616400
O        3.62905000       6.90318000       2.13426000       0.00000000       0.00000000       0.00000000       0.07483440       1.79973000      -0.15112500
H        4.83768000       1.55626000       3.61035000       0.00000000       0.00000000       0.00000000       0.86065900       0.19065900      -0.90347900
H        3.24875000       7.59341000       2.80052000       0.00000000       0.00000000       0.00000000       0.46158400      -0.49334400      -0.69395900
O        9.45339000       0.39862300       6.59675000       0.00000000       0.00000000       0.00000000      -0.53034600      -0.45585800      -0.10377700