LAMMPS (28 Mar 2023 - Development)
KOKKOS mode is enabled (src/KOKKOS/kokkos.cpp:107)
  will use up to 1 GPU(s) per node
  using 1 OpenMP thread(s) per MPI task
package kokkos
# LAMMPS input script

# == SETUP ==
units metal #ps A K  pressure in bars
atom_style atomic

atom_modify map yes
newton on

timer timeout 23:55:00
New timer settings: style=normal  mode=nosync  timeout=23:55:00

# == VARIABLES ==
variable    temp_water equal 330  # Temperature of water system
variable    temp_Cu_mobile equal 310 # Temperatureof the Cu atom (not fixed). 310 K ensures a temperature of 330 K in the outermost Cu atoms.
variable    seed1 equal 256982574
variable    seed2 equal 1008705
variable    stride equal 1000
variable    nsteps equal 2000000 # 1000 ps
variable    tstep equal 0.0005 # 0.5fs

# == DATA ==
boundary p p p #full
read_data Cu_H2O_m1.data
Reading data file ...
  orthogonal box = (0 0 0) to (10.140377 8.7818242 30.131127)
  1 by 1 by 1 MPI processor grid
  reading atoms ...
  246 atoms
  reading velocities ...
  246 velocities
  read_data CPU = 0.105 seconds
mass		1 63.55   # Cu
mass		2 2.0016  # H
mass 		3 15.9994 # O

# == Define GROUPS ==
group H2O type 2 3
150 atoms in group H2O

# == DEFINE FIX Cu layers ==
variable z_fix_bottom equal 13.5 # A
variable z_fix_up equal 16.5# # A
region fixedlayer block  INF INF INF INF ${z_fix_bottom} ${z_fix_up} #
region fixedlayer block  INF INF INF INF 13.5 ${z_fix_up} 
region fixedlayer block  INF INF INF INF 13.5 16.5 

group Cuall type 1
96 atoms in group Cuall
group fixedCu region fixedlayer
32 atoms in group fixedCu
group mobileCu subtract Cuall fixedCu
64 atoms in group mobileCu

# == Fix layers in the middle of the slab ==
fix fissoCubott fixedCu setforce 0 0 0
velocity fixedCu set 0 0 0

# == Define surface layers ==

variable z_surface_inf_low equal 9.0 # A
variable z_surface_inf_high equal 10.6 # A
region surface_inf block  INF INF INF INF ${z_surface_inf_low} ${z_surface_inf_high}
region surface_inf block  INF INF INF INF 9 ${z_surface_inf_high}
region surface_inf block  INF INF INF INF 9 10.6
group surf_inf_Cu region surface_inf
16 atoms in group surf_inf_Cu

variable z_surface_sup_low equal 19.8 # A
variable z_surface_sup_high equal 21.0 # A
region surface_sup block  INF INF INF INF ${z_surface_sup_low} ${z_surface_sup_high}
region surface_sup block  INF INF INF INF 19.8 ${z_surface_sup_high}
region surface_sup block  INF INF INF INF 19.8 21
group surf_sup_Cu region surface_sup
16 atoms in group surf_sup_Cu

# == Define Pair Style ==

pair_style mace no_domain_decomposition
pair_coeff * * Franken_Cu_H2O_m1_RF_1024-lammps.pt Cu H O

# == Define NVT thermostat ==

velocity mobileCu create ${temp_Cu_mobile} ${seed1} mom yes rot yes
velocity mobileCu create 310 ${seed1} mom yes rot yes
velocity mobileCu create 310 256982574 mom yes rot yes
fix NVT_Cu mobileCu nvt temp ${temp_Cu_mobile} ${temp_Cu_mobile} $(100.0*dt)
fix NVT_Cu mobileCu nvt temp 310 ${temp_Cu_mobile} $(100.0*dt)
fix NVT_Cu mobileCu nvt temp 310 310 $(100.0*dt)
fix NVT_Cu mobileCu nvt temp 310 310 0.10000000000000000555

velocity  H2O create ${temp_water} ${seed2}
velocity  H2O create 330 ${seed2}
velocity  H2O create 330 1008705
fix NVT_H2O H2O nvt temp ${temp_water} ${temp_water} $(100.0*dt)
fix NVT_H2O H2O nvt temp 330 ${temp_water} $(100.0*dt)
fix NVT_H2O H2O nvt temp 330 330 $(100.0*dt)
fix NVT_H2O H2O nvt temp 330 330 0.10000000000000000555

# == Compute and Visualization ==

thermo          ${stride}
thermo          1000
thermo_style    custom step pe ke etotal temp press vol
thermo_modify	flush yes
fix 		thermo_print all print ${stride} "$(step) $(pe) $(ke) $(etotal) $(temp) $(press) $(vol)" append thermo.out screen no title "#step pe ke etotal temp press vol"
fix 		thermo_print all print 1000 "$(step) $(pe) $(ke) $(etotal) $(temp) $(press) $(vol)" append thermo.out screen no title "#step pe ke etotal temp press vol"

compute Tmobile mobileCu temp
compute Tsurface_inf surf_inf_Cu temp
compute Tsurface_sup surf_sup_Cu temp
compute Twater H2O temp
compute Tall all temp
compute Press all pressure Tall

fix myat1 mobileCu ave/time 1 1 100 c_Tmobile file temperature_mobile.dat
fix myat2 surf_inf_Cu ave/time 1 1 100 c_Tsurface_inf file temperature_surf_inf.dat
fix myat3 surf_sup_Cu ave/time 1 1 100 c_Tsurface_sup file temperature_surf_sup.dat
fix myat4 H2O ave/time 1 1 100 c_Twater file temperature_water.dat
fix myat5 all ave/time 1 1 100 c_Press[3]  file pressure_all.dat

dump		viewNVT all custom ${stride} Cu_H2O_NVT_m1.dump id type element x y z fx fy fz
dump		viewNVT all custom 1000 Cu_H2O_NVT_m1.dump id type element x y z fx fy fz
dump_modify	viewNVT sort id append yes element Cu H O

# == RUN  NVT ==

timestep ${tstep}
timestep 0.0005
run		${nsteps}
run		2000000
Generated 0 of 3 mixed pair_coeff terms from geometric mixing rule
Neighbor list info ...
  update: every = 1 steps, delay = 0 steps, check = yes
  max neighbors/atom: 2000, page size: 100000
  master list distance cutoff = 14
  ghost atom cutoff = 14
  binsize = 14, bins = 1 1 3
  1 neighbor lists, perpetual/occasional/extra = 1 0 0
  (1) pair mace/kk, perpetual
      attributes: full, newton on, kokkos_device
      pair build: full/bin/kk/device
      stencil: full/bin/3d
      bin: kk/device
Per MPI rank memory allocation (min/avg/max) = 4.832 | 4.832 | 4.832 Mbytes
   Step         PotEng         KinEng         TotEng          Temp          Press          Volume    
         0  -1811.7642      8.880172      -1802.884       280.40816      3534.9742      2683.2073    
      1000  -1812.0143      8.8463018     -1803.168       279.33865      3521.4913      2683.2073    
      2000  -1811.9188      8.9908708     -1802.9279      283.90369      3579.0406      2683.2073    
      3000  -1810.7044      9.4036854     -1801.3008      296.93909      3743.3718      2683.2073    
      4000  -1811.6232      9.3370372     -1802.2862      294.83454      3716.8408      2683.2073    
      5000  -1811.089       8.7783824     -1802.3107      277.19397      3494.4543      2683.2073    
      6000  -1812.5224      9.658513      -1802.8639      304.98575      3844.8123      2683.2073    
      7000  -1811.6559      9.6506453     -1802.0053      304.73731      3841.6803      2683.2073    
      8000  -1811.4252      8.8047728     -1802.6204      278.02729      3504.9597      2683.2073    
      9000  -1810.8872      8.6619073     -1802.2253      273.51604      3448.0885      2683.2073    
     10000  -1811.362       8.3613155     -1803.0007      264.02429      3328.4304      2683.2073    
     11000  -1809.3582      8.6482956     -1800.7099      273.08623      3442.67        2683.2073    
     12000  -1810.4448      7.8617726     -1802.5831      248.25028      3129.5749      2683.2073    
     13000  -1811.7424      9.0602594     -1802.6821      286.09476      3606.6625      2683.2073    
     14000  -1810.8618      8.1255807     -1802.7362      256.58052      3234.5903      2683.2073    
     15000  -1810.8591      8.8173218     -1802.0418      278.42355      3509.9551      2683.2073    
     16000  -1810.9098      7.8348331     -1803.075       247.39962      3118.8509      2683.2073    
     17000  -1811.5188      9.2157623     -1802.3031      291.00506      3668.5643      2683.2073    
     18000  -1811.1539      8.2552746     -1802.8986      260.67585      3286.2182      2683.2073    
     19000  -1811.2392      8.3870464     -1802.8521      264.83679      3338.6732      2683.2073    
     20000  -1812.5729      8.6864533     -1803.8864      274.29113      3457.8596      2683.2073    
     21000  -1811.2308      8.4626559     -1802.7682      267.22431      3368.7715      2683.2073    
     22000  -1812.4322      8.6460381     -1803.7862      273.01495      3441.7714      2683.2073    
     23000  -1812.4593      9.5008664     -1802.9584      300.00776      3782.0571      2683.2073    
     24000  -1810.7199      9.1648707     -1801.555       289.39806      3648.3056      2683.2073    
     25000  -1811.3363      8.9836741     -1802.3526      283.67644      3576.1758      2683.2073    
     26000  -1811.3544      8.2940608     -1803.0603      261.9006       3301.658       2683.2073    
     27000  -1811.4734      9.5479937     -1801.9254      301.49589      3800.8173      2683.2073    
     28000  -1811.1653      8.8279175     -1802.3374      278.75813      3514.173       2683.2073    
     29000  -1811.7012      9.7099438     -1801.9912      306.60977      3865.2856      2683.2073    
     30000  -1811.9411      8.4267984     -1803.5143      266.09204      3354.4975      2683.2073    
     31000  -1811.5623      8.8821842     -1802.6802      280.4717       3535.7752      2683.2073    
     32000  -1812.0155      8.8344567     -1803.181       278.96462      3516.7761      2683.2073    
     33000  -1811.6301      8.0852084     -1803.5449      255.30569      3218.5191      2683.2073    
     34000  -1812.139       9.232539      -1802.9064      291.53482      3675.2427      2683.2073    
     35000  -1811.0763      9.2038674     -1801.8724      290.62946      3663.8292      2683.2073    
     36000  -1811.5396      9.5357819     -1802.0039      301.11028      3795.9561      2683.2073    
     37000  -1812.4067      9.5333499     -1802.8734      301.03349      3794.988       2683.2073    
     38000  -1811.5473      8.3804334     -1803.1669      264.62798      3336.0408      2683.2073    
     39000  -1812.289       8.6164867     -1803.6725      272.0818       3430.0077      2683.2073    
     40000  -1811.9057      8.6495153     -1803.2561      273.12474      3443.1555      2683.2073    
     41000  -1811.9074      8.9862106     -1802.9212      283.75653      3577.1855      2683.2073    
     42000  -1810.2145      8.726636      -1801.4879      275.55997      3473.8553      2683.2073    
     43000  -1811.7301      8.2618022     -1803.4683      260.88197      3288.8167      2683.2073    
     44000  -1812.4449      8.7188791     -1803.726       275.31504      3470.7675      2683.2073    
     45000  -1811.8925      9.0757889     -1802.8167      286.58514      3612.8444      2683.2073    
     46000  -1811.2725      8.9180335     -1802.3545      281.60371      3550.0459      2683.2073    
     47000  -1811.5087      8.5412493     -1802.9675      269.70604      3400.0576      2683.2073    
     48000  -1811.3832      8.0538858     -1803.3293      254.31662      3206.0504      2683.2073    
     49000  -1811.2866      8.1943496     -1803.0922      258.75203      3261.9655      2683.2073    
     50000  -1811.6181      9.7566679     -1801.8614      308.08518      3883.8853      2683.2073    
     51000  -1810.9162      8.7641062     -1802.1521      276.74317      3488.7713      2683.2073    
     52000  -1812.9815      8.8323607     -1804.1491      278.89843      3515.9417      2683.2073    
     53000  -1812.3777      8.5851508     -1803.7925      271.09231      3417.5336      2683.2073    
     54000  -1811.9957      9.0451024     -1802.9506      285.61615      3600.6288      2683.2073    
     55000  -1811.4946      8.633949      -1802.8607      272.63321      3436.959       2683.2073    
     56000  -1811.7896      8.6158787     -1803.1737      272.06261      3429.7656      2683.2073    
     57000  -1810.7051      9.1234919     -1801.5816      288.09145      3631.8337      2683.2073    
     58000  -1813.3587      9.1440114     -1804.2147      288.73939      3640.0021      2683.2073    
     59000  -1811.0807      8.8349761     -1802.2458      278.98102      3516.9829      2683.2073    
     60000  -1811.5014      9.0242147     -1802.4772      284.95659      3592.314       2683.2073    
     61000  -1810.9402      8.4925839     -1802.4476      268.16934      3380.6851      2683.2073    
     62000  -1811.4149      9.5262805     -1801.8886      300.81026      3792.1738      2683.2073    
     63000  -1811.6547      8.4434527     -1803.2112      266.61793      3361.1272      2683.2073    
     64000  -1812.0907      7.8651003     -1804.2256      248.35536      3130.8996      2683.2073    
     65000  -1811.1289      9.9088518     -1801.22        312.89067      3944.4659      2683.2073    
     66000  -1811.7891      9.1656812     -1802.6235      289.42366      3648.6283      2683.2073    
     67000  -1812.6052      8.3567541     -1804.2485      263.88026      3326.6146      2683.2073    
     68000  -1811.2614      9.2501086     -1802.0113      292.08961      3682.2367      2683.2073    
     69000  -1812.3594      9.4404943     -1802.9189      298.1014       3758.0245      2683.2073    
     70000  -1812.1638      8.7548245     -1803.409       276.45008      3485.0765      2683.2073    
     71000  -1811.433       8.8552485     -1802.5777      279.62116      3525.0528      2683.2073    
     72000  -1811.7815      8.9306795     -1802.8508      282.00304      3555.08        2683.2073    
     73000  -1810.9169      9.2227047     -1801.6942      291.22428      3671.3279      2683.2073    
     74000  -1811.64        7.9155291     -1803.7244      249.94775      3150.974       2683.2073    
     75000  -1811.6503      9.5466074     -1802.1037      301.45212      3800.2654      2683.2073    
     76000  -1811.622       9.3870617     -1802.2349      296.41416      3736.7543      2683.2073    
     77000  -1811.2302      8.8992302     -1802.331       281.00996      3542.5608      2683.2073    
     78000  -1813.2076      8.6224897     -1804.5851      272.27136      3432.3973      2683.2073    
     79000  -1811.6567      8.465783      -1803.1909      267.32305      3370.0163      2683.2073    
     80000  -1811.7621      9.5061544     -1802.256       300.17474      3784.1621      2683.2073    
     81000  -1812.154       8.0680669     -1804.0859      254.76442      3211.6955      2683.2073    
     82000  -1810.7697      8.4139514     -1802.3558      265.68637      3349.3834      2683.2073    
     83000  -1811.7041      8.7537673     -1802.9503      276.4167       3484.6556      2683.2073    
     84000  -1811.3001      9.1699843     -1802.1302      289.55953      3650.3412      2683.2073    
     85000  -1812.239       9.1909253     -1803.0481      290.22079      3658.6773      2683.2073    
     86000  -1812.835       8.9850436     -1803.85        283.71968      3576.721       2683.2073    
     87000  -1811.9222      8.7498683     -1803.1723      276.29358      3483.1035      2683.2073    
     88000  -1812.501       8.2317938     -1804.2692      259.9344       3276.8711      2683.2073    
     89000  -1811.3001      8.7966702     -1802.5034      277.77144      3501.7342      2683.2073    
     90000  -1811.5866      9.8151556     -1801.7714      309.93203      3907.1678      2683.2073    
     91000  -1811.4842      8.8887721     -1802.5954      280.67973      3538.3977      2683.2073    
     92000  -1812.361       8.5412783     -1803.8197      269.70696      3400.0691      2683.2073    
     93000  -1811.0508      8.8602946     -1802.1905      279.7805       3527.0615      2683.2073    
     94000  -1812.4537      7.7206174     -1804.7331      243.79304      3073.3845      2683.2073    
     95000  -1811.5802      9.0199277     -1802.5603      284.82121      3590.6074      2683.2073    
     96000  -1811.3242      8.4194184     -1802.9048      265.859        3351.5597      2683.2073    
     97000  -1811.3312      8.9686276     -1802.3626      283.20132      3570.1861      2683.2073    
     98000  -1811.5779      8.8070867     -1802.7708      278.10036      3505.8808      2683.2073    
     99000  -1810.6245      8.7878964     -1801.8366      277.49439      3498.2416      2683.2073    
    100000  -1811.3708      8.7147577     -1802.656       275.1849       3469.1269      2683.2073    
    101000  -1812.5025      9.3879645     -1803.1146      296.44267      3737.1137      2683.2073    
    102000  -1811.1686      8.656064      -1802.5125      273.33153      3445.7624      2683.2073    
    103000  -1812.0845      9.4939408     -1802.5906      299.78907      3779.3002      2683.2073    
    104000  -1810.987       8.8334931     -1802.1535      278.93419      3516.3925      2683.2073    
    105000  -1810.6138      8.7510314     -1801.8627      276.33031      3483.5665      2683.2073    
    106000  -1812.4764      8.3930831     -1804.0833      265.02741      3341.0763      2683.2073    
    107000  -1812.2704      8.8805705     -1803.3898      280.42075      3535.1328      2683.2073    
    108000  -1811.0911      8.4906278     -1802.6005      268.10757      3379.9064      2683.2073    
    109000  -1811.5164      9.834928      -1801.6814      310.55638      3915.0386      2683.2073    
    110000  -1810.7182      9.743677      -1800.9745      307.67496      3878.7139      2683.2073    
    111000  -1811.2105      8.5606079     -1802.6498      270.31733      3407.7637      2683.2073    
    112000  -1811.1963      8.2204313     -1802.9759      259.57561      3272.3479      2683.2073    
    113000  -1811.6115      8.3332318     -1803.2783      263.1375       3317.251       2683.2073    
    114000  -1812.4302      9.2204107     -1803.2098      291.15184      3670.4147      2683.2073    
    115000  -1812.1997      8.5849287     -1803.6148      271.0853       3417.4452      2683.2073    
    116000  -1812.4985      9.0830633     -1803.4155      286.81484      3615.7401      2683.2073    
    117000  -1811.8256      8.6536984     -1803.1719      273.25683      3444.8207      2683.2073    
    118000  -1811.9153      9.2558821     -1802.6594      292.27192      3684.535       2683.2073    
    119000  -1811.4704      8.8526667     -1802.6177      279.53963      3524.025       2683.2073    
    120000  -1813.1621      9.0917092     -1804.0704      287.08785      3619.1818      2683.2073    
    121000  -1812.1194      9.3611079     -1802.7583      295.59462      3726.4227      2683.2073    
    122000  -1812.8271      8.7695557     -1804.0576      276.91525      3490.9406      2683.2073    
    123000  -1812.6389      8.8333337     -1803.8056      278.92916      3516.3291      2683.2073    
    124000  -1811.1131      8.4774337     -1802.6357      267.69094      3374.6542      2683.2073    
    125000  -1810.8981      8.3403387     -1802.5578      263.36191      3320.0801      2683.2073    
    126000  -1810.6995      8.6323484     -1802.0671      272.58267      3436.3218      2683.2073    
    127000  -1812.0552      7.3541693     -1804.701       232.22175      2927.5107      2683.2073    
    128000  -1811.4563      8.7129337     -1802.7434      275.1273       3468.4008      2683.2073    
    129000  -1811.176       8.2270938     -1802.949       259.78599      3275.0001      2683.2073    
    130000  -1810.7629      9.1363816     -1801.6265      288.49847      3636.9648      2683.2073    
    131000  -1810.39        7.9728394     -1802.4172      251.75743      3173.7878      2683.2073    
    132000  -1809.5884      9.4812712     -1800.1071      299.389        3774.2567      2683.2073    
    133000  -1811.0629      8.934578      -1802.1283      282.12614      3556.6319      2683.2073    
    134000  -1811.7211      9.5038854     -1802.2172      300.10309      3783.2589      2683.2073    
    135000  -1812.2119      8.1386976     -1804.0732      256.99471      3239.8118      2683.2073    
    136000  -1811.6326      8.8759128     -1802.7567      280.27367      3533.2787      2683.2073    
    137000  -1812.0471      8.4891298     -1803.558       268.06027      3379.3101      2683.2073    
    138000  -1811.9548      9.6162321     -1802.3386      303.65065      3827.9813      2683.2073    
    139000  -1811.7899      9.6092746     -1802.1806      303.43095      3825.2117      2683.2073    
    140000  -1812.7302      9.1019112     -1803.6283      287.41         3623.243       2683.2073    
    141000  -1812.8512      9.0519755     -1803.7993      285.83318      3603.3649      2683.2073    
    142000  -1812.2429      9.4580523     -1802.7849      298.65582      3765.0139      2683.2073    
    143000  -1813.1072      8.8705691     -1804.2366      280.10493      3531.1515      2683.2073    
    144000  -1811.9684      8.3721097     -1803.5963      264.36514      3332.7273      2683.2073    
    145000  -1812.1899      8.2601036     -1803.9298      260.82834      3288.1405      2683.2073    
    146000  -1811.6733      8.337688      -1803.3356      263.27821      3319.0249      2683.2073    
    147000  -1811.9978      8.6865347     -1803.3112      274.2937       3457.892       2683.2073    
    148000  -1811.5228      9.7895201     -1801.7332      309.12255      3896.9629      2683.2073    
    149000  -1812.913       8.9238708     -1803.9891      281.78804      3552.3696      2683.2073    
    150000  -1812.9146      8.8157174     -1804.0988      278.37289      3509.3164      2683.2073    
    151000  -1812.7289      9.0334492     -1803.6955      285.24818      3595.99        2683.2073    
    152000  -1811.3607      10.026512     -1801.3342      316.60601      3991.3034      2683.2073    
    153000  -1811.9763      7.9769442     -1803.9994      251.88705      3175.4218      2683.2073    
    154000  -1812.0106      8.7768208     -1803.2338      277.14466      3493.8327      2683.2073    
    155000  -1813.9689      9.2859822     -1804.683       293.22239      3696.5171      2683.2073    
    156000  -1812.82        8.0142592     -1804.8057      253.06534      3190.276       2683.2073    
    157000  -1811.5614      8.8260573     -1802.7353      278.69939      3513.4325      2683.2073    
    158000  -1812.7977      9.8103393     -1802.9874      309.77995      3905.2505      2683.2073    
    159000  -1812.364       8.7210159     -1803.6429      275.38251      3471.6181      2683.2073    
    160000  -1812.8576      8.792546      -1804.065       277.64121      3500.0925      2683.2073    
    161000  -1811.7084      9.1226267     -1802.5858      288.06413      3631.4893      2683.2073    
    162000  -1812.2923      9.0053188     -1803.287       284.35991      3584.792       2683.2073    
    163000  -1812.5665      8.8355795     -1803.7309      279.00007      3517.223       2683.2073    
    164000  -1813.0871      8.7226427     -1804.3644      275.43388      3472.2657      2683.2073    
    165000  -1811.3964      8.7063526     -1802.69        274.91949      3465.7811      2683.2073    
    166000  -1811.6158      9.4318602     -1802.1839      297.82876      3754.5875      2683.2073    
    167000  -1812.5582      9.1796434     -1803.3786      289.86454      3654.1863      2683.2073    
    168000  -1812.8765      9.0326955     -1803.8438      285.22438      3595.69        2683.2073    
    169000  -1811.816       8.2305102     -1803.5854      259.89387      3276.3601      2683.2073    
    170000  -1813.072       8.7208761     -1804.3511      275.37809      3471.5625      2683.2073    
    171000  -1813.6612      8.8924499     -1804.7688      280.79586      3539.8617      2683.2073    
    172000  -1812.416       8.9544631     -1803.4616      282.75405      3564.5476      2683.2073    
    173000  -1812.6516      9.0806045     -1803.571       286.7372       3614.7613      2683.2073    
    174000  -1811.832       8.6894448     -1803.1426      274.38559      3459.0505      2683.2073    
    175000  -1813.2221      9.036904      -1804.1851      285.35727      3597.3653      2683.2073    
    176000  -1812.149       8.79809       -1803.351       277.81627      3502.2994      2683.2073    
    177000  -1812.7327      7.6923434     -1805.0403      242.90024      3062.1294      2683.2073    
    178000  -1813.6322      8.7023069     -1804.9299      274.79174      3464.1706      2683.2073    
    179000  -1813.2952      8.7751655     -1804.52        277.09239      3493.1737      2683.2073    
    180000  -1812.2928      9.3970572     -1802.8958      296.72979      3740.7333      2683.2073    
    181000  -1813.1274      9.3121479     -1803.8152      294.04862      3706.933       2683.2073    
    182000  -1811.903       8.2220134     -1803.6809      259.62557      3272.9777      2683.2073    
    183000  -1811.9266      9.0253782     -1802.9012      284.99332      3592.7771      2683.2073    
    184000  -1812.553       9.5670077     -1802.986       302.0963       3808.3863      2683.2073    
    185000  -1812.5608      8.3780091     -1804.1828      264.55142      3335.0757      2683.2073    
    186000  -1811.9798      8.4819685     -1803.4978      267.83414      3376.4593      2683.2073    
    187000  -1810.9783      10.137925     -1800.8404      320.12408      4035.6541      2683.2073    
    188000  -1812.6137      9.1436352     -1803.4701      288.72751      3639.8523      2683.2073    
    189000  -1812.2468      9.2822833     -1802.9645      293.10559      3695.0447      2683.2073    
    190000  -1812.378       8.9260643     -1803.4519      281.8573       3553.2428      2683.2073    
    191000  -1812.1861      8.2464413     -1803.9397      260.39692      3282.7018      2683.2073    
    192000  -1813.2104      8.6357236     -1804.5747      272.68925      3437.6654      2683.2073    
    193000  -1811.8202      8.378647      -1803.4416      264.57157      3335.3297      2683.2073    
    194000  -1813.0154      9.9429928     -1803.0724      313.96874      3958.0566      2683.2073    
    195000  -1812.1706      8.6966828     -1803.4739      274.61415      3461.9318      2683.2073    
    196000  -1812.4237      7.903575      -1804.5201      249.57027      3146.2154      2683.2073    
    197000  -1811.2291      8.8649442     -1802.3642      279.92732      3528.9124      2683.2073    
    198000  -1812.1488      8.1300012     -1804.0188      256.72011      3236.35        2683.2073    
    199000  -1812.7181      8.1518572     -1804.5662      257.41025      3245.0503      2683.2073    
    200000  -1811.9768      9.4486043     -1802.5282      298.35749      3761.2529      2683.2073    
    201000  -1811.7304      8.6336693     -1803.0967      272.62438      3436.8476      2683.2073    
    202000  -1811.4817      9.6231123     -1801.8586      303.8679       3830.7201      2683.2073    
    203000  -1811.1474      9.5170401     -1801.6303      300.51848      3788.4955      2683.2073    
    204000  -1811.4634      9.0804792     -1802.3829      286.73324      3614.7115      2683.2073    
    205000  -1811.136       8.9993067     -1802.1367      284.17007      3582.3987      2683.2073    
    206000  -1810.6484      9.3273547     -1801.3211      294.5288       3712.9864      2683.2073    
    207000  -1813.0076      8.2536924     -1804.7539      260.62589      3285.5883      2683.2073    
    208000  -1811.0075      9.4371815     -1801.5703      297.99679      3756.7057      2683.2073    
    209000  -1810.8588      8.5190004     -1802.3398      269.00349      3391.2008      2683.2073    
    210000  -1812.3688      9.1532191     -1803.2156      289.03014      3643.6674      2683.2073    
    211000  -1812.0237      8.7487004     -1803.275       276.2567       3482.6386      2683.2073    
    212000  -1810.9856      8.4934897     -1802.4921      268.19794      3381.0457      2683.2073    
    213000  -1811.9728      8.4252256     -1803.5476      266.04238      3353.8714      2683.2073    
    214000  -1810.8707      9.2237882     -1801.6469      291.25849      3671.7592      2683.2073    
    215000  -1811.4356      8.6507102     -1802.7849      273.16248      3443.6312      2683.2073    
    216000  -1811.1606      9.1725337     -1801.9881      289.64003      3651.3561      2683.2073    
    217000  -1811.1226      8.933397      -1802.1892      282.08884      3556.1617      2683.2073    
    218000  -1810.8171      9.2310028     -1801.5861      291.48631      3674.6312      2683.2073    
    219000  -1810.7603      9.8646937     -1800.8956      311.49629      3926.8876      2683.2073    
    220000  -1811.5194      8.6852156     -1802.8342      274.25205      3457.3669      2683.2073    
    221000  -1811.9257      8.5579713     -1803.3677      270.23407      3406.7142      2683.2073    
    222000  -1811.6802      7.863135      -1803.8171      248.2933       3130.1172      2683.2073    
    223000  -1811.5707      9.7243946     -1801.8463      307.06608      3871.0381      2683.2073    
    224000  -1811.7714      9.2818854     -1802.4895      293.09302      3694.8863      2683.2073    
    225000  -1811.9371      8.9310179     -1803.0061      282.01372      3555.2147      2683.2073    
    226000  -1811.2842      8.7810531     -1802.5032      277.2783       3495.5175      2683.2073    
    227000  -1810.5468      9.569596      -1800.9772      302.17802      3809.4166      2683.2073    
    228000  -1811.622       8.246225      -1803.3758      260.39009      3282.6158      2683.2073    
    229000  -1810.3627      8.8471392     -1801.5156      279.36509      3521.8247      2683.2073    
    230000  -1811.1924      9.1153544     -1802.077       287.83449      3628.5944      2683.2073    
    231000  -1811.5597      9.098528      -1802.4612      287.30317      3621.8962      2683.2073    
    232000  -1812.0579      9.4733587     -1802.5845      299.13915      3771.107       2683.2073    
    233000  -1811.2534      8.44671       -1802.8067      266.72079      3362.4238      2683.2073    
    234000  -1811.0024      8.1124584     -1802.89        256.16616      3229.3666      2683.2073    
    235000  -1810.9097      9.3356826     -1801.5741      294.79177      3716.3016      2683.2073    
    236000  -1811.7273      9.5494211     -1802.1779      301.54097      3801.3855      2683.2073    
    237000  -1811.4511      9.65045       -1801.8006      304.73114      3841.6026      2683.2073    
    238000  -1811.926       8.7355306     -1803.1904      275.84084      3477.3961      2683.2073    
    239000  -1811.8772      8.6928311     -1803.1844      274.49252      3460.3985      2683.2073    
    240000  -1810.1384      8.5095653     -1801.6288      268.70556      3387.4449      2683.2073    
    241000  -1812.955       8.7983644     -1804.1566      277.82494      3502.4086      2683.2073    
    242000  -1811.1661      8.9110008     -1802.2551      281.38164      3547.2464      2683.2073    
    243000  -1811.2624      8.7231353     -1802.5392      275.44943      3472.4618      2683.2073    
    244000  -1812.1486      9.5370628     -1802.6115      301.15073      3796.466       2683.2073    
    245000  -1812.3412      8.1278366     -1804.2134      256.65176      3235.4883      2683.2073    
    246000  -1810.7267      9.3608607     -1801.3658      295.58682      3726.3243      2683.2073    
    247000  -1811.8473      9.1596105     -1802.6877      289.23196      3646.2117      2683.2073    
    248000  -1811.9001      9.490338      -1802.4098      299.67531      3777.866       2683.2073    
    249000  -1811.2669      9.3677887     -1801.8991      295.80558      3729.0822      2683.2073    
    250000  -1811.6442      8.96838       -1802.6758      283.1935       3570.0876      2683.2073    
    251000  -1811.3558      8.6801808     -1802.6756      274.09307      3455.3627      2683.2073    
    252000  -1812.1675      8.9955328     -1803.172       284.0509       3580.8964      2683.2073    
    253000  -1812.1702      8.966638      -1803.2035      283.13849      3569.3941      2683.2073    
    254000  -1811.3095      8.5279204     -1802.7816      269.28516      3394.7517      2683.2073    
    255000  -1811.6758      8.9223176     -1802.7535      281.73899      3551.7513      2683.2073    
    256000  -1810.9636      8.9034584     -1802.0601      281.14348      3544.2439      2683.2073    
    257000  -1811.5855      8.3367739     -1803.2488      263.24935      3318.661       2683.2073    
    258000  -1811.7837      9.4314152     -1802.3523      297.81471      3754.4103      2683.2073    
    259000  -1812.0134      8.8697178     -1803.1437      280.07805      3530.8126      2683.2073    
    260000  -1810.5481      7.7398224     -1802.8083      244.39948      3081.0295      2683.2073    
    261000  -1811.1047      9.5281952     -1801.5765      300.87072      3792.936       2683.2073    
    262000  -1811.0684      9.3472525     -1801.7212      295.15711      3720.9072      2683.2073    
    263000  -1811.8309      8.5420538     -1803.2888      269.73144      3400.3778      2683.2073    
    264000  -1811.3103      9.5563082     -1801.754       301.75844      3804.1271      2683.2073    
    265000  -1810.7777      9.4409551     -1801.3367      298.11595      3758.2079      2683.2073    
    266000  -1812.3562      8.4935808     -1803.8627      268.20082      3381.0819      2683.2073    
    267000  -1812.3517      8.5770825     -1803.7746      270.83754      3414.3219      2683.2073    
    268000  -1811.17        8.3927308     -1802.7772      265.01629      3340.9361      2683.2073    
    269000  -1811.666       9.0772538     -1802.5887      286.6314       3613.4275      2683.2073    
    270000  -1812.0212      9.3713465     -1802.6499      295.91792      3730.4985      2683.2073    
    271000  -1812.3399      9.1147427     -1803.2252      287.81518      3628.3509      2683.2073    
    272000  -1812.3555      9.3682464     -1802.9873      295.82003      3729.2644      2683.2073    
    273000  -1812.5585      9.4217221     -1803.1368      297.50863      3750.5517      2683.2073    
    274000  -1810.3735      8.5085487     -1801.865       268.67346      3387.0403      2683.2073    
    275000  -1811.5628      9.1987247     -1802.3641      290.46707      3661.782       2683.2073    
    276000  -1810.7842      8.4508844     -1802.3333      266.8526       3364.0855      2683.2073    
    277000  -1811.609       8.9816371     -1802.6274      283.61212      3575.3649      2683.2073    
    278000  -1811.6689      8.9023635     -1802.7666      281.1089       3543.8081      2683.2073    
    279000  -1811.8057      9.0794385     -1802.7262      286.70038      3614.2972      2683.2073    
    280000  -1811.2569      8.6112039     -1802.6457      271.91499      3427.9047      2683.2073    
    281000  -1812.203       8.5061971     -1803.6968      268.5992       3386.1041      2683.2073    
    282000  -1812.7929      8.7563096     -1804.0366      276.49698      3485.6677      2683.2073    
    283000  -1811.4776      8.8062675     -1802.6713      278.07449      3505.5547      2683.2073    
    284000  -1811.3944      8.9252834     -1802.4691      281.83264      3552.9319      2683.2073    
    285000  -1810.8972      8.5475583     -1802.3497      269.90526      3402.569       2683.2073    
    286000  -1812.0775      8.851024      -1803.2265      279.48776      3523.3711      2683.2073    
    287000  -1811.5932      9.3283068     -1802.2649      294.55886      3713.3654      2683.2073    
    288000  -1812.4162      9.2733973     -1803.1428      292.825        3691.5074      2683.2073    
    289000  -1812.3099      7.7154187     -1804.5945      243.62888      3071.3151      2683.2073    
    290000  -1811.9257      8.4754667     -1803.4502      267.62883      3373.8711      2683.2073    
    291000  -1810.8943      7.9148103     -1802.9795      249.92505      3150.6879      2683.2073    
    292000  -1812.1435      8.8928068     -1803.2507      280.80713      3540.0038      2683.2073    
    293000  -1812.3728      8.9109434     -1803.4618      281.37983      3547.2235      2683.2073    
    294000  -1812.3006      9.0366271     -1803.264       285.34853      3597.2551      2683.2073    
    295000  -1812.4168      9.112872      -1803.3039      287.7561       3627.6062      2683.2073    
    296000  -1811.3134      8.886121      -1802.4273      280.59602      3537.3424      2683.2073    
    297000  -1811.3545      9.0042159     -1802.3502      284.32508      3584.353       2683.2073    
    298000  -1812.0718      8.4714346     -1803.6004      267.50151      3372.2661      2683.2073    
    299000  -1811.9127      9.4513054     -1802.4614      298.44278      3762.3281      2683.2073    
    300000  -1812.0546      9.8247265     -1802.2298      310.23425      3910.9777      2683.2073    
    301000  -1811.4764      8.8982287     -1802.5781      280.97834      3542.1621      2683.2073    
    302000  -1811.5439      8.5533852     -1802.9905      270.08925      3404.8885      2683.2073    
    303000  -1811.5593      8.3538182     -1803.2055      263.78755      3325.4459      2683.2073    
    304000  -1812.0876      8.7021912     -1803.3854      274.78809      3464.1245      2683.2073    
    305000  -1813.07        9.0429854     -1804.027       285.5493       3599.7861      2683.2073    
    306000  -1813.2626      9.7023859     -1803.5602      306.37112      3862.2769      2683.2073    
    307000  -1812.5509      9.4053545     -1803.1456      296.99179      3744.0362      2683.2073    
    308000  -1811.3517      9.0792148     -1802.2725      286.69332      3614.2081      2683.2073    
    309000  -1811.1343      8.9006047     -1802.2337      281.05337      3543.108       2683.2073    
    310000  -1813.4007      9.4308364     -1803.9698      297.79643      3754.1799      2683.2073    
    311000  -1811.9101      8.8127695     -1803.0973      278.2798       3508.143       2683.2073    
    312000  -1811.0582      9.0075766     -1802.0506      284.4312       3585.6908      2683.2073    
    313000  -1811.5115      8.7664864     -1802.745       276.81833      3489.7188      2683.2073    
    314000  -1812.2383      8.6333293     -1803.6049      272.61364      3436.7123      2683.2073    
    315000  -1812.57        8.6521726     -1803.9179      273.20865      3444.2133      2683.2073    
    316000  -1812.1723      8.9621059     -1803.2102      282.99538      3567.59        2683.2073    
    317000  -1812.2275      9.3416255     -1802.8858      294.97943      3718.6673      2683.2073    
    318000  -1811.379       9.3841412     -1801.9949      296.32194      3735.5917      2683.2073    
    319000  -1811.4964      10.389795     -1801.1066      328.07735      4135.9173      2683.2073    
    320000  -1811.8251      9.5876083     -1802.2375      302.7468       3816.5869      2683.2073    
    321000  -1812.0927      8.7032566     -1803.3894      274.82173      3464.5486      2683.2073    
    322000  -1811.4331      8.8537667     -1802.5793      279.57437      3524.4629      2683.2073    
    323000  -1810.4129      8.3149541     -1802.098       262.56034      3309.9751      2683.2073    
    324000  -1810.9628      8.2568184     -1802.706       260.7246       3286.8327      2683.2073    
    325000  -1811.243       8.7436768     -1802.4993      276.09807      3480.6389      2683.2073    
    326000  -1812.0122      7.4579191     -1804.5543      235.49785      2968.8109      2683.2073    
    327000  -1811.7846      8.1955561     -1803.589       258.79013      3262.4457      2683.2073    
    328000  -1811.7691      8.6449732     -1803.1242      272.98132      3441.3474      2683.2073    
    329000  -1811.2015      8.359939      -1802.8415      263.98083      3327.8825      2683.2073    
    330000  -1810.804       9.8089363     -1800.9951      309.73565      3904.692       2683.2073    
    331000  -1811.5715      8.530681      -1803.0408      269.37233      3395.8506      2683.2073    
    332000  -1811.8702      8.5315722     -1803.3387      269.40047      3396.2053      2683.2073    
    333000  -1812.4077      8.311929      -1804.0958      262.46482      3308.7709      2683.2073    
    334000  -1812.1476      8.8314187     -1803.3162      278.86869      3515.5667      2683.2073    
    335000  -1811.4903      8.7748402     -1802.7155      277.08211      3493.0442      2683.2073    
    336000  -1811.6797      8.9192811     -1802.7604      281.64311      3550.5425      2683.2073    
    337000  -1811.37        9.0299335     -1802.3401      285.13717      3594.5905      2683.2073    
    338000  -1811.5978      8.2949767     -1803.3029      261.92952      3302.0226      2683.2073    
    339000  -1811.6718      8.5143242     -1803.1575      268.85583      3389.3394      2683.2073    
    340000  -1811.4797      8.2009695     -1803.2787      258.96107      3264.6007      2683.2073    
    341000  -1811.863       8.6892192     -1803.1738      274.37847      3458.9607      2683.2073    
    342000  -1812.0019      8.4687821     -1803.5332      267.41775      3371.2102      2683.2073    
    343000  -1812.0964      9.2540903     -1802.8423      292.21534      3683.8217      2683.2073    
    344000  -1811.8844      9.0016721     -1802.8827      284.24476      3583.3403      2683.2073    
    345000  -1811.0095      9.2533284     -1801.7561      292.19128      3683.5184      2683.2073    
    346000  -1810.9858      8.0383908     -1802.9474      253.82734      3199.8822      2683.2073    
    347000  -1812.2109      8.554102      -1803.6568      270.11189      3405.1739      2683.2073    
    348000  -1811.7049      8.6010241     -1803.1039      271.59354      3423.8524      2683.2073    
    349000  -1811.639       9.1692042     -1802.4698      289.5349       3650.0307      2683.2073    
    350000  -1810.1166      8.4508762     -1801.6657      266.85234      3364.0823      2683.2073    
    351000  -1810.8083      8.1193907     -1802.6889      256.38506      3232.1262      2683.2073    
    352000  -1812.9358      8.7943854     -1804.1414      277.69929      3500.8247      2683.2073    
    353000  -1810.8591      8.6667991     -1802.1923      273.67051      3450.0358      2683.2073    
    354000  -1811.6192      9.0864936     -1802.5327      286.92316      3617.1057      2683.2073    
    355000  -1811.6735      8.0742938     -1803.5992      254.96104      3214.1743      2683.2073    
    356000  -1811.4704      9.0352742     -1802.4351      285.30581      3596.7165      2683.2073    
    357000  -1811.8422      8.9501467     -1802.8921      282.61775      3562.8294      2683.2073    
    358000  -1811.3694      9.6616791     -1801.7077      305.08572      3846.0726      2683.2073    
    359000  -1811.1344      8.8714377     -1802.2629      280.13236      3531.4973      2683.2073    
    360000  -1810.7379      9.0939091     -1801.644       287.15732      3620.0576      2683.2073    
    361000  -1812.637       8.8215787     -1803.8154      278.55797      3511.6497      2683.2073    
    362000  -1811.6223      8.5714064     -1803.0509      270.65831      3412.0624      2683.2073    
    363000  -1811.4449      8.7903807     -1802.6545      277.57284      3499.2305      2683.2073    
    364000  -1811.5003      8.6776146     -1802.8227      274.01203      3454.3412      2683.2073    
    365000  -1812.4262      9.8348467     -1802.5913      310.55382      3915.0063      2683.2073    
    366000  -1811.9573      9.321639      -1802.6357      294.34832      3710.7112      2683.2073    
    367000  -1811.8625      9.1620813     -1802.7004      289.30998      3647.1952      2683.2073    
    368000  -1812.048       8.3098554     -1803.7381      262.39934      3307.9454      2683.2073    
    369000  -1811.8338      9.1490025     -1802.6848      288.89699      3641.9889      2683.2073    
    370000  -1810.5784      10.796727     -1799.7816      340.92699      4297.9066      2683.2073    
    371000  -1812.1143      8.8647405     -1803.2496      279.92089      3528.8313      2683.2073    
    372000  -1810.3185      8.4795523     -1801.839       267.75784      3375.4975      2683.2073    
    373000  -1811.6921      8.3137866     -1803.3783      262.52348      3309.5103      2683.2073    
    374000  -1810.3882      9.0146383     -1801.3735      284.65419      3588.5019      2683.2073    
    375000  -1811.1905      8.9277888     -1802.2627      281.91176      3553.9293      2683.2073    
    376000  -1813.2035      8.6402668     -1804.5633      272.83271      3439.4739      2683.2073    
    377000  -1811.7455      8.8608405     -1802.8847      279.79774      3527.2788      2683.2073    
    378000  -1811.2626      9.0669706     -1802.1957      286.30668      3609.334       2683.2073    
    379000  -1811.5752      9.1410057     -1802.4342      288.64448      3638.8056      2683.2073    
    380000  -1812.35        7.9267153     -1804.4232      250.30097      3155.4269      2683.2073    
    381000  -1813.2357      8.9581777     -1804.2775      282.87134      3566.0263      2683.2073    
    382000  -1812.2995      8.5649972     -1803.7345      270.45593      3409.511       2683.2073    
    383000  -1811.8679      10.090748     -1801.7771      318.63439      4016.8743      2683.2073    
    384000  -1811.437       9.154883      -1802.2822      289.08268      3644.3298      2683.2073    
    385000  -1811.8415      8.2544157     -1803.5871      260.64873      3285.8763      2683.2073    
    386000  -1810.7059      8.6045565     -1802.1013      271.70508      3425.2586      2683.2073    
    387000  -1810.8491      8.832687      -1802.0164      278.90874      3516.0716      2683.2073    
    388000  -1812.027       9.3050051     -1802.722       293.82307      3704.0896      2683.2073    
    389000  -1811.2102      8.9057113     -1802.3045      281.21462      3545.1408      2683.2073    
    390000  -1809.9289      8.5866773     -1801.3423      271.14052      3418.1413      2683.2073    
    391000  -1811.1462      9.0175693     -1802.1286      284.74674      3589.6686      2683.2073    
    392000  -1812.3602      8.4475023     -1803.9127      266.7458       3362.7392      2683.2073    
    393000  -1812.0257      7.9301443     -1804.0956      250.40925      3156.792       2683.2073    
    394000  -1811.9046      8.9385762     -1802.966       282.25239      3558.2235      2683.2073    
    395000  -1811.5639      9.1848686     -1802.379       290.02953      3656.2663      2683.2073    
    396000  -1812.2005      8.7894249     -1803.4111      277.54265      3498.85        2683.2073    
    397000  -1813.0867      8.1753884     -1804.9113      258.15329      3254.4175      2683.2073    
    398000  -1812.2105      8.8287859     -1803.3817      278.78555      3514.5187      2683.2073    
    399000  -1811.7846      8.8503111     -1802.9343      279.46525      3523.0873      2683.2073    
    400000  -1812.8233      8.5290142     -1804.2943      269.3197       3395.1871      2683.2073    
    401000  -1813.4876      9.1898213     -1804.2978      290.18592      3658.2378      2683.2073    
    402000  -1811.4077      9.2317523     -1802.1759      291.50997      3674.9295      2683.2073    
    403000  -1811.4944      8.9704257     -1802.5239      283.2581       3570.9019      2683.2073    
    404000  -1812.5604      9.6912211     -1802.8692      306.01857      3857.8325      2683.2073    
    405000  -1812.8438      8.8968011     -1803.947       280.93326      3541.5938      2683.2073    
    406000  -1811.7187      8.3268361     -1803.3918      262.93554      3314.705       2683.2073    
    407000  -1812.4285      9.5881222     -1802.8404      302.76303      3816.7915      2683.2073    
    408000  -1811.3893      8.8783625     -1802.5109      280.35103      3534.2539      2683.2073    
    409000  -1812.3378      9.805231      -1802.5325      309.61865      3903.217       2683.2073    
    410000  -1811.2118      8.92249       -1802.2893      281.74443      3551.8199      2683.2073    
    411000  -1811.8022      9.6713497     -1802.1308      305.39109      3849.9222      2683.2073    
    412000  -1811.9939      8.4476571     -1803.5462      266.75069      3362.8008      2683.2073    
    413000  -1811.2274      9.1725893     -1802.0549      289.64179      3651.3782      2683.2073    
    414000  -1811.2506      7.8747242     -1803.3758      248.65926      3134.7306      2683.2073    
    415000  -1812.4565      9.0335515     -1803.4229      285.25141      3596.0307      2683.2073    
    416000  -1811.7018      8.9854477     -1802.7164      283.73244      3576.8818      2683.2073    
    417000  -1812.2591      9.4144283     -1802.8447      297.27831      3747.6482      2683.2073    
    418000  -1811.2139      9.0818975     -1802.132       286.77803      3615.2761      2683.2073    
    419000  -1812.8612      8.7282748     -1804.1329      275.61172      3474.5077      2683.2073    
    420000  -1810.1284      8.0002954     -1802.1282      252.6244       3184.7173      2683.2073    
    421000  -1811.5231      8.7449083     -1802.7782      276.13696      3481.1291      2683.2073    
    422000  -1810.6431      8.6688027     -1801.9743      273.73378      3450.8334      2683.2073    
    423000  -1811.2564      8.4418439     -1802.8146      266.56713      3360.4867      2683.2073    
    424000  -1811.4834      9.3888532     -1802.0946      296.47073      3737.4675      2683.2073    
    425000  -1812.0631      8.7933556     -1803.2697      277.66677      3500.4147      2683.2073    
    426000  -1811.1233      8.8905378     -1802.2328      280.73548      3539.1006      2683.2073    
    427000  -1808.974       8.9284391     -1800.0456      281.93229      3554.1881      2683.2073    
    428000  -1811.023       8.4624515     -1802.5605      267.21785      3368.6901      2683.2073    
    429000  -1811.564       8.3753075     -1803.1887      264.46612      3334.0003      2683.2073    
    430000  -1810.6659      8.2231184     -1802.4428      259.66046      3273.4176      2683.2073    
    431000  -1811.1357      8.2536953     -1802.882       260.62598      3285.5895      2683.2073    
    432000  -1810.9333      9.4572619     -1801.476       298.63087      3764.6992      2683.2073    
    433000  -1811.4654      8.5457982     -1802.9196      269.84968      3401.8684      2683.2073    
    434000  -1811.7247      9.3603447     -1802.3644      295.57052      3726.1189      2683.2073    
    435000  -1811.5458      8.4687281     -1803.077       267.41605      3371.1887      2683.2073    
    436000  -1812.0095      8.38363       -1803.6258      264.72891      3337.3132      2683.2073    
    437000  -1812.4283      9.5250581     -1802.9033      300.77166      3791.6872      2683.2073    
    438000  -1811.5727      8.8132074     -1802.7595      278.29363      3508.3173      2683.2073    
    439000  -1812.6245      9.2984758     -1803.326       293.61689      3701.4905      2683.2073    
    440000  -1811.3012      9.3807049     -1801.9205      296.21343      3734.2238      2683.2073    
    441000  -1811.3801      9.2177525     -1802.1623      291.0679       3669.3565      2683.2073    
    442000  -1811.5638      8.9911677     -1802.5726      283.91306      3579.1588      2683.2073    
    443000  -1812.5053      9.4828337     -1803.0225      299.43834      3774.8787      2683.2073    
    444000  -1811.9362      9.1716506     -1802.7645      289.61215      3651.0045      2683.2073    
    445000  -1809.8061      9.2332326     -1800.5728      291.55672      3675.5188      2683.2073    
    446000  -1811.0961      8.7451345     -1802.3509      276.1441       3481.2191      2683.2073    
    447000  -1812.0352      8.8722787     -1803.1629      280.15892      3531.8321      2683.2073    
    448000  -1811.012       9.7625631     -1801.2494      308.27133      3886.232       2683.2073    
    449000  -1811.5638      9.1598713     -1802.4039      289.2402       3646.3155      2683.2073    
    450000  -1811.9197      8.7190848     -1803.2006      275.32153      3470.8494      2683.2073    
    451000  -1811.8757      8.6738844     -1803.2018      273.89424      3452.8563      2683.2073    
    452000  -1811.2973      9.0229867     -1802.2743      284.91781      3591.8252      2683.2073    
    453000  -1811.2103      8.7338982     -1802.4764      275.78929      3476.7462      2683.2073    
    454000  -1812.4962      8.811294      -1803.6849      278.23321      3507.5556      2683.2073    
    455000  -1812.8494      8.4096067     -1804.4398      265.54918      3347.6539      2683.2073    
    456000  -1813.0389      8.7780257     -1804.2609      277.1827       3494.3123      2683.2073    
    457000  -1811.8792      8.9638694     -1802.9153      283.05107      3568.292       2683.2073    
    458000  -1811.0026      7.5888222     -1803.4137      239.63136      3020.9202      2683.2073    
    459000  -1811.1209      8.8357231     -1802.2851      279.00461      3517.2802      2683.2073    
    460000  -1811.3882      8.6388384     -1802.7493      272.7876       3438.9053      2683.2073    
    461000  -1810.9934      8.2275617     -1802.7659      259.80076      3275.1864      2683.2073    
    462000  -1811.3293      8.8458357     -1802.4835      279.32393      3521.3058      2683.2073    
    463000  -1811.0726      8.3538018     -1802.7188      263.78703      3325.4394      2683.2073    
    464000  -1810.7307      8.734547      -1801.9962      275.80978      3477.0045      2683.2073    
    465000  -1812.4511      9.4248978     -1803.0262      297.60891      3751.8159      2683.2073    
    466000  -1810.9857      8.9609528     -1802.0247      282.95897      3567.131       2683.2073    
    467000  -1811.8587      8.1148019     -1803.7439      256.24016      3230.2995      2683.2073    
    468000  -1811.3853      8.6672001     -1802.7181      273.68317      3450.1954      2683.2073    
    469000  -1810.8192      8.5859672     -1802.2333      271.11809      3417.8586      2683.2073    
    470000  -1811.3166      8.654666      -1802.6619      273.28739      3445.2059      2683.2073    
    471000  -1811.8667      9.440192      -1802.4265      298.09185      3757.9041      2683.2073    
    472000  -1812.0478      9.4265866     -1802.6212      297.66224      3752.4882      2683.2073    
    473000  -1812.5718      8.3154541     -1804.2564      262.57613      3310.1741      2683.2073    
    474000  -1810.8503      8.8386753     -1802.0116      279.09783      3518.4554      2683.2073    
    475000  -1811.1216      9.0613587     -1802.0603      286.12948      3607.1001      2683.2073    
    476000  -1811.6944      9.7237978     -1801.9706      307.04724      3870.8005      2683.2073    
    477000  -1812.2404      9.0918732     -1803.1485      287.09303      3619.2472      2683.2073    
    478000  -1813.3155      8.528937      -1804.7866      269.31726      3395.1563      2683.2073    
    479000  -1811.8973      9.3432894     -1802.554       295.03197      3719.3296      2683.2073    
    480000  -1812.3541      8.8212808     -1803.5328      278.54856      3511.5311      2683.2073    
    481000  -1811.9935      8.7276915     -1803.2658      275.5933       3474.2755      2683.2073    
    482000  -1810.929       9.4404369     -1801.4886      298.09959      3758.0016      2683.2073    
    483000  -1811.759       9.8204908     -1801.9385      310.1005       3909.2916      2683.2073    
    484000  -1811.6561      8.9578512     -1802.6982      282.86103      3565.8963      2683.2073    
    485000  -1810.9401      8.143828      -1802.7963      257.15672      3241.8541      2683.2073    
    486000  -1812.7434      8.8191527     -1803.9242      278.48136      3510.6839      2683.2073    
    487000  -1811.6474      9.3189702     -1802.3284      294.26404      3709.6488      2683.2073    
    488000  -1811.4996      8.5703445     -1802.9292      270.62478      3411.6396      2683.2073    
    489000  -1811.1138      8.5965991     -1802.5172      271.45381      3422.0909      2683.2073    
    490000  -1811.2132      9.6345497     -1801.5787      304.22906      3835.2731      2683.2073    
    491000  -1812.2616      9.2682675     -1802.9933      292.66301      3689.4653      2683.2073    
    492000  -1812.1128      8.7287609     -1803.3841      275.62707      3474.7012      2683.2073    
    493000  -1810.7923      9.2697691     -1801.5225      292.71043      3690.0631      2683.2073    
    494000  -1811.4864      8.559455      -1802.927       270.28092      3407.3048      2683.2073    
    495000  -1810.6235      8.6362166     -1801.9873      272.70481      3437.8617      2683.2073    
    496000  -1811.7132      9.8837537     -1801.8294      312.09815      3934.475       2683.2073    
    497000  -1811.793       7.7783875     -1804.0146      245.61724      3096.3814      2683.2073    
    498000  -1812.1434      8.3419973     -1803.8014      263.41428      3320.7403      2683.2073    
    499000  -1811.726       9.2076292     -1802.5184      290.74824      3665.3267      2683.2073    
    500000  -1811.6386      10.031527     -1801.6071      316.76438      3993.2999      2683.2073    
    501000  -1811.6362      9.408049      -1802.2282      297.07688      3745.1088      2683.2073    
    502000  -1812.2462      9.2486461     -1802.9975      292.04343      3681.6545      2683.2073    
    503000  -1811.3464      8.1321392     -1803.2143      256.78762      3237.201       2683.2073    
    504000  -1811.4926      8.2286103     -1803.264       259.83388      3275.6038      2683.2073    
    505000  -1811.1974      8.81927       -1802.3782      278.48507      3510.7306      2683.2073    
    506000  -1811.4586      9.3050351     -1802.1536      293.82402      3704.1015      2683.2073    
    507000  -1811.7927      8.9600239     -1802.8326      282.92964      3566.7612      2683.2073    
    508000  -1812.0174      9.255918      -1802.7615      292.27305      3684.5493      2683.2073    
    509000  -1810.7328      8.5172458     -1802.2155      268.94808      3390.5023      2683.2073    
    510000  -1812.3569      8.9188423     -1803.4381      281.62925      3550.3679      2683.2073    
    511000  -1811.5267      9.523422      -1802.0032      300.71999      3791.0359      2683.2073    
    512000  -1811.7744      8.8853778     -1802.8891      280.57255      3537.0465      2683.2073    
    513000  -1811.7215      8.511347      -1803.2101      268.76182      3388.1542      2683.2073    
    514000  -1811.4615      8.9123904     -1802.5491      281.42552      3547.7995      2683.2073    
    515000  -1811.4894      9.3049131     -1802.1845      293.82016      3704.053       2683.2073    
    516000  -1812.1699      8.837766      -1803.3321      279.06911      3518.0934      2683.2073    
    517000  -1811.2707      9.2566739     -1802.0141      292.29692      3684.8502      2683.2073    
    518000  -1812.5512      9.1442173     -1803.407       288.74589      3640.084       2683.2073    
    519000  -1812.4417      9.4580129     -1802.9837      298.65458      3764.9982      2683.2073    
    520000  -1812.3604      9.6007233     -1802.7597      303.16093      3821.8076      2683.2073    
    521000  -1811.6353      8.0566546     -1803.5786      254.40405      3207.1525      2683.2073    
    522000  -1812.1455      8.5970604     -1803.5484      271.46838      3422.2746      2683.2073    
    523000  -1812.0616      8.675029      -1803.3865      273.93039      3453.3119      2683.2073    
    524000  -1811.9842      9.2301391     -1802.7541      291.45903      3674.2873      2683.2073    
    525000  -1811.3434      9.8367615     -1801.5067      310.61428      3915.7685      2683.2073    
    526000  -1812.041       9.2696712     -1802.7713      292.70733      3690.0241      2683.2073    
    527000  -1811.7951      8.7448655     -1803.0503      276.13561      3481.1121      2683.2073    
    528000  -1812.8019      8.2141031     -1804.5878      259.37579      3269.8289      2683.2073    
    529000  -1811.8267      9.3561662     -1802.4706      295.43858      3724.4556      2683.2073    
    530000  -1811.6287      9.8506805     -1801.778       311.0538       3921.3094      2683.2073    
    531000  -1811.0445      8.7544896     -1802.29        276.43951      3484.9432      2683.2073    
    532000  -1812.0729      8.3620576     -1803.7108      264.04773      3328.7258      2683.2073    
    533000  -1812.4698      8.9231772     -1803.5466      281.76614      3552.0935      2683.2073    
    534000  -1813.6183      8.7477438     -1804.8706      276.22649      3482.2578      2683.2073    
    535000  -1811.8774      9.0760949     -1802.8013      286.5948       3612.9662      2683.2073    
    536000  -1811.2657      9.094577      -1802.1712      287.17841      3620.3235      2683.2073    
    537000  -1812.8785      8.907022      -1803.9715      281.256        3545.6625      2683.2073    
    538000  -1812.7586      9.8394216     -1802.9192      310.69828      3916.8275      2683.2073    
    539000  -1810.8265      9.1656838     -1801.6609      289.42374      3648.6293      2683.2073    
    540000  -1812.0401      8.8155348     -1803.2246      278.36712      3509.2437      2683.2073    
    541000  -1811.2365      8.9474192     -1802.2891      282.53162      3561.7436      2683.2073    
    542000  -1811.5069      10.204658     -1801.3023      322.23131      4062.2189      2683.2073    
    543000  -1812.2723      7.9940394     -1804.2783      252.42686      3182.227       2683.2073    
    544000  -1811.0704      8.728193      -1802.3422      275.60914      3474.4752      2683.2073    
    545000  -1812.3345      8.6919938     -1803.6425      274.46608      3460.0652      2683.2073    
    546000  -1812.2484      8.8889047     -1803.3595      280.68392      3538.4505      2683.2073    
    547000  -1811.9245      9.3732503     -1802.5513      295.97804      3731.2563      2683.2073    
    548000  -1811.837       9.0922179     -1802.7447      287.10391      3619.3843      2683.2073    
    549000  -1811.8664      8.6920537     -1803.1743      274.46798      3460.089       2683.2073    
    550000  -1811.461       8.7923053     -1802.6687      277.63361      3499.9967      2683.2073    
    551000  -1811.2319      9.3282047     -1801.9037      294.55564      3713.3248      2683.2073    
    552000  -1811.2783      8.880184      -1802.3981      280.40854      3534.979       2683.2073    
    553000  -1811.7869      8.8145359     -1802.9723      278.33558      3508.8461      2683.2073    
    554000  -1810.3476      8.1589683     -1802.1886      257.6348       3247.881       2683.2073    
    555000  -1811.8372      8.9409158     -1802.8963      282.32626      3559.1548      2683.2073    
    556000  -1811.1099      8.3412137     -1802.7687      263.38954      3320.4284      2683.2073    
    557000  -1812.263       8.8549405     -1803.408       279.61143      3524.9302      2683.2073    
    558000  -1811.7274      8.5473841     -1803.18        269.89976      3402.4997      2683.2073    
    559000  -1811.4433      8.5000129     -1802.9433      268.40393      3383.6424      2683.2073    
    560000  -1812.379       8.7487738     -1803.6302      276.25902      3482.6679      2683.2073    
    561000  -1811.395       8.4316186     -1802.9634      266.24425      3356.4163      2683.2073    
    562000  -1812.6223      9.6439982     -1802.9783      304.52741      3839.0343      2683.2073    
    563000  -1811.5266      9.3830776     -1802.1435      296.28836      3735.1683      2683.2073    
    564000  -1811.8475      9.6676472     -1802.1799      305.27418      3848.4483      2683.2073    
    565000  -1812.7641      7.5717844     -1805.1923      239.09336      3014.1378      2683.2073    
    566000  -1810.8478      8.532891      -1802.3149      269.44211      3396.7303      2683.2073    
    567000  -1812.4316      8.9438886     -1803.4877      282.42014      3560.3382      2683.2073    
    568000  -1810.9042      9.3815496     -1801.5226      296.24011      3734.5601      2683.2073    
    569000  -1811.1861      8.6781905     -1802.5079      274.03022      3454.5704      2683.2073    
    570000  -1811.0141      8.9417821     -1802.0723      282.35362      3559.4996      2683.2073    
    571000  -1811.7832      9.5261253     -1802.257       300.80536      3792.112       2683.2073    
    572000  -1811.5654      7.9400938     -1803.6253      250.72342      3160.7526      2683.2073    
    573000  -1810.8389      8.583019      -1802.2559      271.025        3416.685       2683.2073    
    574000  -1811.5966      9.0903877     -1802.5062      287.04612      3618.6558      2683.2073    
    575000  -1812.2308      8.6612792     -1803.5695      273.49621      3447.8385      2683.2073    
    576000  -1812.1514      8.7802575     -1803.3712      277.25317      3495.2007      2683.2073    
    577000  -1811.8712      9.6342158     -1802.237       304.21852      3835.1402      2683.2073    
    578000  -1811.7251      9.3399337     -1802.3852      294.92601      3717.9938      2683.2073    
    579000  -1812.4111      9.1367204     -1803.2744      288.50916      3637.0997      2683.2073    
    580000  -1810.4512      8.7820421     -1801.6692      277.30953      3495.9112      2683.2073    
    581000  -1812.3563      9.4684925     -1802.8878      298.98549      3769.1698      2683.2073    
    582000  -1811.8082      9.5234813     -1802.2848      300.72187      3791.0595      2683.2073    
    583000  -1811.5941      9.5124434     -1802.0817      300.37333      3786.6656      2683.2073    
    584000  -1811.3869      9.0745221     -1802.3124      286.54514      3612.3401      2683.2073    
    585000  -1811.9131      8.7598273     -1803.1532      276.60805      3487.068       2683.2073    
    586000  -1811.7793      9.3111231     -1802.4682      294.01626      3706.525       2683.2073    
    587000  -1811.3599      8.6488029     -1802.7111      273.10225      3442.872       2683.2073    
    588000  -1812.2224      8.5335774     -1803.6888      269.46379      3397.0036      2683.2073    
    589000  -1812.3074      9.3612287     -1802.9462      295.59844      3726.4708      2683.2073    
    590000  -1811.5169      8.4191486     -1803.0978      265.85048      3351.4523      2683.2073    
    591000  -1811.1653      8.7492463     -1802.4161      276.27394      3482.8559      2683.2073    
    592000  -1812.0235      7.7308287     -1804.2927      244.11549      3077.4494      2683.2073    
    593000  -1810.9368      8.4561997     -1802.4806      267.02044      3366.2015      2683.2073    
    594000  -1811.7196      9.0384279     -1802.6812      285.40539      3597.9719      2683.2073    
    595000  -1812.0879      8.6703066     -1803.4176      273.78127      3451.432       2683.2073    
    596000  -1812.3137      9.3727945     -1802.9409      295.96365      3731.0749      2683.2073    
    597000  -1812.3568      8.2944013     -1804.0624      261.91135      3301.7936      2683.2073    
    598000  -1812.0378      8.8789572     -1803.1589      280.3698       3534.4906      2683.2073    
    599000  -1811.7592      9.4814147     -1802.2778      299.39353      3774.3139      2683.2073    
    600000  -1812.1967      8.989511      -1803.2072      283.86075      3578.4993      2683.2073    
    601000  -1812.5171      9.041213      -1803.4759      285.49334      3599.0806      2683.2073    
    602000  -1811.3518      8.5396834     -1802.8122      269.6566       3399.4342      2683.2073    
    603000  -1812.0061      8.8671794     -1803.1389      279.9979       3529.8022      2683.2073    
    604000  -1811.4236      9.3055708     -1802.118       293.84093      3704.3148      2683.2073    
    605000  -1811.7481      9.5890026     -1802.1591      302.79083      3817.1419      2683.2073    
    606000  -1812.0921      8.9114007     -1803.1807      281.39427      3547.4056      2683.2073    
    607000  -1811.86        8.5751773     -1803.2848      270.77738      3413.5635      2683.2073    
    608000  -1812.8972      7.8758555     -1805.0214      248.69498      3135.1809      2683.2073    
    609000  -1811.872       9.4672545     -1802.4048      298.9464       3768.677       2683.2073    
    610000  -1811.6193      8.8976411     -1802.7216      280.95978      3541.9282      2683.2073    
    611000  -1811.6368      7.9756693     -1803.6611      251.84679      3174.9143      2683.2073    
    612000  -1811.6461      8.0446132     -1803.6015      254.02382      3202.3592      2683.2073    
    613000  -1811.6128      9.7567993     -1801.856       308.08932      3883.9376      2683.2073    
    614000  -1811.8578      9.1987307     -1802.6591      290.46726      3661.7845      2683.2073    
    615000  -1812.1217      9.387857      -1802.7338      296.43928      3737.0709      2683.2073    
    616000  -1811.5141      9.9204595     -1801.5936      313.2572       3949.0866      2683.2073    
    617000  -1810.53        9.0923645     -1801.4377      287.10854      3619.4427      2683.2073    
    618000  -1811.5225      8.8669042     -1802.6556      279.98921      3529.6926      2683.2073    
    619000  -1811.8395      8.6748206     -1803.1646      273.92381      3453.229       2683.2073    
    620000  -1811.7876      8.843082      -1802.9445      279.23698      3520.2096      2683.2073    
    621000  -1812.2001      9.5673527     -1802.6327      302.10719      3808.5236      2683.2073    
    622000  -1812.0586      8.6590156     -1803.3996      273.42473      3446.9374      2683.2073    
    623000  -1812.3495      8.0135558     -1804.3359      253.04313      3189.996       2683.2073    
    624000  -1812.128       9.0893661     -1803.0386      287.01386      3618.2491      2683.2073    
    625000  -1812.2986      8.775022      -1803.5236      277.08785      3493.1166      2683.2073    
    626000  -1812.1992      7.9792717     -1804.2199      251.96054      3176.3483      2683.2073    
    627000  -1811.0293      8.8226681     -1802.2066      278.59237      3512.0833      2683.2073    
    628000  -1811.5486      8.608394      -1802.9402      271.82626      3426.7862      2683.2073    
    629000  -1812.3376      9.0540572     -1803.2836      285.89892      3604.1936      2683.2073    
    630000  -1812.0507      9.1691434     -1802.8816      289.53298      3650.0065      2683.2073    
    631000  -1812.2834      9.4192976     -1802.8641      297.43207      3749.5866      2683.2073    
    632000  -1811.1748      9.5873068     -1801.5875      302.73728      3816.4669      2683.2073    
    633000  -1812.5801      8.5820187     -1803.9981      270.99341      3416.2868      2683.2073    
    634000  -1812.4896      8.0944968     -1804.3951      255.59899      3222.2166      2683.2073    
    635000  -1812.3396      8.8525883     -1803.487       279.53716      3523.9938      2683.2073    
    636000  -1811.2812      9.1558917     -1802.1253      289.11453      3644.7313      2683.2073    
    637000  -1810.8881      9.1332008     -1801.7549      288.39803      3635.6986      2683.2073    
    638000  -1812.1795      10.257542     -1801.9219      323.90122      4083.2707      2683.2073    
    639000  -1811.7918      8.9884873     -1802.8033      283.82842      3578.0918      2683.2073    
    640000  -1811.6738      8.8499242     -1802.8239      279.45303      3522.9333      2683.2073    
    641000  -1811.8459      9.7201703     -1802.1257      306.9327       3869.3565      2683.2073    
    642000  -1810.3708      9.4724624     -1800.8984      299.11085      3770.7502      2683.2073    
    643000  -1811.3592      9.3258932     -1802.0333      294.48265      3712.4046      2683.2073    
    644000  -1811.3149      8.146178      -1803.1687      257.23092      3242.7896      2683.2073    
    645000  -1812.3087      8.7824236     -1803.5263      277.32157      3496.063       2683.2073    
    646000  -1811.4683      9.7587934     -1801.7095      308.15229      3884.7314      2683.2073    
    647000  -1811.2337      9.5120305     -1801.7216      300.36029      3786.5012      2683.2073    
    648000  -1812.0035      8.6935075     -1803.31        274.51388      3460.6677      2683.2073    
    649000  -1811.3416      9.7628829     -1801.5788      308.28143      3886.3593      2683.2073    
    650000  -1810.7264      9.131279      -1801.5952      288.33734      3634.9336      2683.2073    
    651000  -1811.4434      8.5084444     -1802.935       268.67017      3386.9987      2683.2073    
    652000  -1810.8399      8.1436162     -1802.6963      257.15003      3241.7698      2683.2073    
    653000  -1810.4328      8.3823154     -1802.0505      264.68741      3336.79        2683.2073    
    654000  -1811.2722      9.8990692     -1801.3731      312.58176      3940.5717      2683.2073    
    655000  -1810.5235      9.35823       -1801.1652      295.50375      3725.2771      2683.2073    
    656000  -1812.2753      8.9564693     -1803.3188      282.8174       3565.3462      2683.2073    
    657000  -1811.2386      9.3465718     -1801.8921      295.13562      3720.6363      2683.2073    
    658000  -1812.6265      8.6811338     -1803.9454      274.12316      3455.7421      2683.2073    
    659000  -1811.749       7.9874644     -1803.7615      252.21924      3179.6097      2683.2073    
    660000  -1811.5334      9.6512768     -1801.8821      304.75725      3841.9317      2683.2073    
    661000  -1811.2736      8.7984775     -1802.4751      277.82851      3502.4537      2683.2073    
    662000  -1812.2707      8.3125693     -1803.9581      262.48504      3309.0258      2683.2073    
    663000  -1812.368       9.7255123     -1802.6425      307.10138      3871.483       2683.2073    
    664000  -1811.2588      8.9559665     -1802.3028      282.80152      3565.1461      2683.2073    
    665000  -1810.9879      9.6210188     -1801.3669      303.8018       3829.8868      2683.2073    
    666000  -1810.9519      8.7577262     -1802.1942      276.54171      3486.2316      2683.2073    
    667000  -1811.8716      8.3432393     -1803.5283      263.4535       3321.2347      2683.2073    
    668000  -1811.7238      9.0504781     -1802.6733      285.7859       3602.7688      2683.2073    
    669000  -1811.7415      8.8878566     -1802.8537      280.65082      3538.0332      2683.2073    
    670000  -1811.9226      9.1247792     -1802.7978      288.1321       3632.3462      2683.2073    
    671000  -1811.8512      8.3771644     -1803.474       264.52475      3334.7395      2683.2073    
    672000  -1812.588       8.7230298     -1803.865       275.4461       3472.4198      2683.2073    
    673000  -1811.8044      9.4464885     -1802.3579      298.29068      3760.4106      2683.2073    
    674000  -1810.7829      8.7615114     -1802.0214      276.66123      3487.7384      2683.2073    
    675000  -1812.1103      8.464067      -1803.6462      267.26886      3369.3332      2683.2073    
    676000  -1812.4186      8.9990459     -1803.4196      284.16183      3582.2949      2683.2073    
    677000  -1811.4155      9.0379737     -1802.3775      285.39105      3597.7911      2683.2073    
    678000  -1811.3548      8.9474283     -1802.4074      282.53191      3561.7472      2683.2073    
    679000  -1812.086       8.5953215     -1803.4907      271.41347      3421.5823      2683.2073    
    680000  -1812.3715      8.9011518     -1803.4704      281.07064      3543.3257      2683.2073    
    681000  -1811.6372      8.4055836     -1803.2316      265.42214      3346.0524      2683.2073    
    682000  -1811.2255      9.4053268     -1801.8202      296.99092      3744.0252      2683.2073    
    683000  -1812.7997      8.4282433     -1804.3714      266.13766      3355.0727      2683.2073    
    684000  -1811.6952      8.8789989     -1802.8162      280.37112      3534.5072      2683.2073    
    685000  -1812.9058      9.1235446     -1803.7822      288.09311      3631.8547      2683.2073    
    686000  -1812.0233      9.2122717     -1802.811       290.89484      3667.1748      2683.2073    
    687000  -1812.2025      8.708835      -1803.4937      274.99788      3466.7692      2683.2073    
    688000  -1812.1567      8.3526407     -1803.8041      263.75037      3324.9772      2683.2073    
    689000  -1811.029       8.1810273     -1802.8479      258.33135      3256.6622      2683.2073    
    690000  -1811.0654      9.1959045     -1801.8695      290.37801      3660.6594      2683.2073    
    691000  -1811.9125      9.118782      -1802.7938      287.94273      3629.9589      2683.2073    
    692000  -1812.2249      9.7483527     -1802.4765      307.82261      3880.5752      2683.2073    
    693000  -1812.452       9.2595638     -1803.1924      292.38818      3686.0006      2683.2073    
    694000  -1812.2407      9.0179348     -1803.2227      284.75829      3589.8141      2683.2073    
    695000  -1812.5756      9.0410041     -1803.5346      285.48674      3598.9974      2683.2073    
    696000  -1812.3092      8.5711728     -1803.738       270.65093      3411.9694      2683.2073    
    697000  -1812.1386      7.9397562     -1804.1988      250.71276      3160.6182      2683.2073    
    698000  -1811.9336      9.5436788     -1802.3899      301.35964      3799.0996      2683.2073    
    699000  -1811.7348      9.6040207     -1802.1308      303.26505      3823.1203      2683.2073    
    700000  -1811.0362      9.0626588     -1801.9735      286.17053      3607.6176      2683.2073    
    701000  -1812.7001      8.4017561     -1804.2983      265.30128      3344.5288      2683.2073    
    702000  -1810.4761      9.5666081     -1800.9095      302.08368      3808.2272      2683.2073    
    703000  -1811.9241      8.9098828     -1803.0142      281.34634      3546.8013      2683.2073    
    704000  -1811.7824      9.1515092     -1802.6309      288.97615      3642.9867      2683.2073    
    705000  -1813.1178      9.6090505     -1803.5087      303.42388      3825.1225      2683.2073    
    706000  -1812.1058      8.9046361     -1803.2012      281.18066      3544.7127      2683.2073    
    707000  -1809.9336      8.5615125     -1801.3721      270.34589      3408.1238      2683.2073    
    708000  -1811.4697      9.0952668     -1802.3744      287.20019      3620.5981      2683.2073    
    709000  -1811.4769      9.4198805     -1802.057       297.45048      3749.8186      2683.2073    
    710000  -1812.1295      8.7834843     -1803.346       277.35507      3496.4852      2683.2073    
    711000  -1812.1994      8.5102217     -1803.6892      268.72629      3387.7062      2683.2073    
    712000  -1811.9738      8.9367038     -1803.0371      282.19326      3557.4781      2683.2073    
    713000  -1812.8102      8.6428714     -1804.1673      272.91495      3440.5108      2683.2073    
    714000  -1812.3139      8.1916921     -1804.1222      258.66812      3260.9076      2683.2073    
    715000  -1812.2637      8.8366885     -1803.427       279.03509      3517.6645      2683.2073    
    716000  -1812.0383      8.7676968     -1803.2706      276.85655      3490.2006      2683.2073    
    717000  -1811.8444      9.0278548     -1802.8166      285.07153      3593.763       2683.2073    
    718000  -1812.7648      8.9550009     -1803.8098      282.77103      3564.7617      2683.2073    
    719000  -1812.9806      8.7852102     -1804.1954      277.40957      3497.1723      2683.2073    
    720000  -1812.6852      8.7373132     -1803.9479      275.89713      3478.1057      2683.2073    
    721000  -1813.4693      8.5638747     -1804.9054      270.42048      3409.0641      2683.2073    
    722000  -1812.7533      9.3493103     -1803.404       295.22209      3721.7264      2683.2073    
    723000  -1812.9777      8.9011248     -1804.0766      281.06979      3543.315       2683.2073    
    724000  -1812.4311      9.1632862     -1803.2678      289.34803      3647.6749      2683.2073    
    725000  -1812.0885      9.3272965     -1802.7612      294.52696      3712.9633      2683.2073    
    726000  -1812.6817      9.1972997     -1803.4844      290.42207      3661.2148      2683.2073    
    727000  -1812.895       8.7333332     -1804.1617      275.77145      3476.5213      2683.2073    
    728000  -1812.9617      7.5929622     -1805.3687      239.76209      3022.5682      2683.2073    
    729000  -1811.8196      9.2362156     -1802.5834      291.65091      3676.7062      2683.2073    
[...]
   1631000  -1811.7378      8.3182664     -1803.4195      262.66494      3311.2936      2683.2073    
   1632000  -1811.9338      8.1295504     -1803.8042      256.70587      3236.1705      2683.2073    
   1633000  -1812.1383      9.3699155     -1802.7684      295.87274      3729.9288      2683.2073    
   1634000  -1812.2861      9.0587779     -1803.2273      286.04798      3606.0727      2683.2073    
   1635000  -1811.8912      9.6938462     -1802.1973      306.10146      3858.8775      2683.2073    
   1636000  -1810.7963      8.5814957     -1802.2148      270.9769       3416.0786      2683.2073    
   1637000  -1810.2323      8.5821916     -1801.6501      270.99887      3416.3556      2683.2073    
   1638000  -1811.0447      8.6184365     -1802.4262      272.14337      3430.7839      2683.2073    
   1639000  -1811.0862      8.6500043     -1802.4362      273.14019      3443.3502      2683.2073    
   1640000  -1810.9008      9.1648964     -1801.7359      289.39887      3648.3158      2683.2073    
   1641000  -1810.451       9.5006323     -1800.9504      300.00037      3781.9639      2683.2073    
   1642000  -1812.5368      9.2165236     -1803.3202      291.0291       3668.8673      2683.2073    
   1643000  -1811.3464      8.9748693     -1802.3715      283.39841      3572.6708      2683.2073    
   1644000  -1811.834       9.3672733     -1802.4668      295.78931      3728.877       2683.2073    
   1645000  -1812.3443      8.3574105     -1803.9869      263.90098      3326.8759      2683.2073    
   1646000  -1811.9467      8.8937412     -1803.0529      280.83664      3540.3758      2683.2073    
   1647000  -1811.8993      8.9448302     -1802.9545      282.44987      3560.713       2683.2073    
   1648000  -1811.2887      8.5466022     -1802.7421      269.87507      3402.1884      2683.2073    
   1649000  -1811.7006      8.7373049     -1802.9633      275.89687      3478.1024      2683.2073    
   1650000  -1812.501       9.0548174     -1803.4462      285.92292      3604.4962      2683.2073    
   1651000  -1810.9098      8.5598423     -1802.35        270.29315      3407.459       2683.2073    
   1652000  -1811.177       9.7367074     -1801.4403      307.45488      3875.9395      2683.2073    
   1653000  -1810.6295      8.2537383     -1802.3757      260.62734      3285.6066      2683.2073    
   1654000  -1812.15        8.7667916     -1803.3832      276.82796      3489.8403      2683.2073    
   1655000  -1810.6427      7.8024364     -1802.8402      246.37663      3105.9546      2683.2073    
   1656000  -1811.9295      9.6197562     -1802.3097      303.76193      3829.3842      2683.2073    
   1657000  -1812.3796      8.3434642     -1804.0361      263.4606       3321.3242      2683.2073    
   1658000  -1812.8177      8.9406784     -1803.877       282.31877      3559.0603      2683.2073    
   1659000  -1811.4351      8.9999979     -1802.4351      284.19189      3582.6739      2683.2073    
   1660000  -1811.4473      8.8149479     -1802.6324      278.34859      3509.0101      2683.2073    
   1661000  -1811.2526      9.3358158     -1801.9167      294.79598      3716.3546      2683.2073    
   1662000  -1811.4116      8.6543055     -1802.7573      273.27601      3445.0624      2683.2073    
   1663000  -1810.331       9.1095537     -1801.2214      287.65132      3626.2853      2683.2073    
   1664000  -1812.7242      9.813732      -1802.9104      309.88708      3906.6011      2683.2073    
   1665000  -1812.232       8.7374899     -1803.4945      275.90271      3478.176       2683.2073    
   1666000  -1811.969       8.8315141     -1803.1375      278.8717       3515.6047      2683.2073    
   1667000  -1811.2716      8.7827025     -1802.4889      277.33038      3496.174       2683.2073    
   1668000  -1812.0228      8.6605746     -1803.3622      273.47396      3447.558       2683.2073    
   1669000  -1812.4613      8.7633782     -1803.6979      276.72018      3488.4815      2683.2073    
   1670000  -1812.649       8.5374902     -1804.1115      269.58734      3398.5611      2683.2073    
   1671000  -1812.0062      8.6509952     -1803.3552      273.17147      3443.7446      2683.2073    
   1672000  -1811.527       9.1369534     -1802.3901      288.51652      3637.1925      2683.2073    
   1673000  -1811.5498      9.1359818     -1802.4138      288.48584      3636.8057      2683.2073    
   1674000  -1811.92        8.3979682     -1803.5221      265.18167      3343.0209      2683.2073    
   1675000  -1811.3882      8.9430165     -1802.4451      282.3926       3559.991       2683.2073    
   1676000  -1811.3755      8.9665483     -1802.4089      283.13566      3569.3584      2683.2073    
   1677000  -1811.67        9.0891883     -1802.5808      287.00825      3618.1784      2683.2073    
   1678000  -1811.1602      9.3716788     -1801.7885      295.92842      3730.6307      2683.2073    
   1679000  -1811.5789      8.940036      -1802.6388      282.29848      3558.8046      2683.2073    
   1680000  -1812.3999      9.0048414     -1803.395       284.34484      3584.602       2683.2073    
   1681000  -1811.9317      9.6910435     -1802.2406      306.01296      3857.7618      2683.2073    
   1682000  -1811.6387      8.8152394     -1802.8235      278.35779      3509.1261      2683.2073    
   1683000  -1811.7762      8.5022871     -1803.2739      268.47574      3384.5477      2683.2073    
   1684000  -1811.8043      10.284825     -1801.5195      324.76274      4094.1315      2683.2073    
   1685000  -1811.6982      9.7055531     -1801.9927      306.47113      3863.5378      2683.2073    
   1686000  -1810.9118      9.1552384     -1801.7565      289.0939       3644.4712      2683.2073    
   1687000  -1810.3897      8.8518902     -1801.5378      279.51511      3523.7159      2683.2073    
   1688000  -1811.903       8.7833921     -1803.1197      277.35216      3496.4485      2683.2073    
   1689000  -1812.1003      8.7802745     -1803.3201      277.25371      3495.2075      2683.2073    
   1690000  -1811.6635      9.7613958     -1801.9021      308.23447      3885.7673      2683.2073    
   1691000  -1811.4384      8.4013537     -1803.037       265.28858      3344.3686      2683.2073    
   1692000  -1810.4088      9.5820692     -1800.8268      302.57189      3814.3819      2683.2073    
   1693000  -1811.0876      7.395872      -1803.6917      233.53859      2944.1115      2683.2073    
   1694000  -1812.9856      8.6279283     -1804.3577      272.44309      3434.5623      2683.2073    
   1695000  -1811.8003      7.9130991     -1803.8872      249.87102      3150.0067      2683.2073    
   1696000  -1811.229       9.5084769     -1801.7206      300.24807      3785.0866      2683.2073    
   1697000  -1811.8908      8.1884769     -1803.7023      258.56659      3259.6277      2683.2073    
   1698000  -1811.7765      8.1362367     -1803.6403      256.91701      3238.8322      2683.2073    
   1699000  -1811.4247      9.097171      -1802.3275      287.26032      3621.3561      2683.2073    
   1700000  -1812.3726      9.1043686     -1803.2682      287.48759      3624.2212      2683.2073    
   1701000  -1811.3877      9.01239       -1802.3753      284.5832       3587.6069      2683.2073    
   1702000  -1811.2916      9.042541      -1802.249       285.53527      3599.6092      2683.2073    
   1703000  -1812.1652      8.6167139     -1803.5485      272.08898      3430.0981      2683.2073    
   1704000  -1811.7938      9.0951246     -1802.6987      287.1957       3620.5414      2683.2073    
   1705000  -1811.0368      9.294428      -1801.7424      293.48908      3699.8791      2683.2073    
   1706000  -1811.1464      9.1248421     -1802.0216      288.13408      3632.3712      2683.2073    
   1707000  -1811.7668      8.4940863     -1803.2728      268.21678      3381.2831      2683.2073    
   1708000  -1811.6854      9.4160306     -1802.2694      297.32891      3748.2861      2683.2073    
   1709000  -1811.9291      8.8509859     -1803.0782      279.48656      3523.3559      2683.2073    
   1710000  -1811.8901      8.2287263     -1803.6614      259.83754      3275.65        2683.2073    
   1711000  -1811.3461      8.9336019     -1802.4125      282.09531      3556.2433      2683.2073    
   1712000  -1810.663       9.5949233     -1801.0681      302.97778      3819.4988      2683.2073    
   1713000  -1811.2118      8.4913817     -1802.7204      268.13138      3380.2065      2683.2073    
   1714000  -1810.702       8.1318467     -1802.5702      256.77838      3237.0846      2683.2073    
   1715000  -1811.8033      8.9027523     -1802.9005      281.12118      3543.9628      2683.2073    
   1716000  -1810.4709      8.6629623     -1801.8079      273.54936      3448.5084      2683.2073    
   1717000  -1810.7318      9.0932967     -1801.6385      287.13798      3619.8138      2683.2073    
   1718000  -1811.4162      8.4057404     -1803.0105      265.42709      3346.1148      2683.2073    
   1719000  -1811.6652      8.4376947     -1803.2275      266.43611      3358.8351      2683.2073    
   1720000  -1811.3694      9.2865511     -1802.0828      293.24035      3696.7435      2683.2073    
   1721000  -1811.5397      7.7308989     -1803.8088      244.1177       3077.4773      2683.2073    
   1722000  -1810.863       8.5459867     -1802.317       269.85563      3401.9434      2683.2073    
   1723000  -1811.0363      8.3861066     -1802.6502      264.80712      3338.2991      2683.2073    
   1724000  -1811.5575      8.9753715     -1802.5821      283.41427      3572.8707      2683.2073    
   1725000  -1812.2071      9.1208655     -1803.0863      288.00851      3630.7882      2683.2073    
   1726000  -1811.9795      9.2323004     -1802.7472      291.52728      3675.1477      2683.2073    
   1727000  -1810.7127      8.8515798     -1801.8611      279.50531      3523.5924      2683.2073    
   1728000  -1811.4071      8.466418      -1802.9407      267.3431       3370.2691      2683.2073    
   1729000  -1813.0237      8.8760461     -1804.1477      280.27788      3533.3318      2683.2073    
   1730000  -1812.2589      8.3068641     -1803.952       262.30489      3306.7547      2683.2073    
   1731000  -1811.4954      8.0686106     -1803.4268      254.78158      3211.9119      2683.2073    
   1732000  -1810.5758      8.5222355     -1802.0535      269.10565      3392.4886      2683.2073    
   1733000  -1811.3265      8.1500239     -1803.1765      257.35236      3244.3205      2683.2073    
   1734000  -1810.9852      8.5342434     -1802.4509      269.48482      3397.2687      2683.2073    
   1735000  -1810.7937      8.7996808     -1801.9941      277.8665       3502.9327      2683.2073    
   1736000  -1811.4925      8.8186363     -1802.6739      278.46506      3510.4784      2683.2073    
   1737000  -1810.9093      9.5349848     -1801.3743      301.08511      3795.6388      2683.2073    
   1738000  -1810.4579      9.5381193     -1800.9198      301.18409      3796.8865      2683.2073    
   1739000  -1811.6799      8.1727791     -1803.5071      258.0709       3253.3788      2683.2073    
   1740000  -1810.4365      9.2221143     -1801.2144      291.20564      3671.0929      2683.2073    
   1741000  -1811.3851      9.1427009     -1802.2424      288.69801      3639.4804      2683.2073    
   1742000  -1811.2269      8.7063822     -1802.5205      274.92042      3465.7928      2683.2073    
   1743000  -1812.0501      8.1283216     -1803.9218      256.66707      3235.6814      2683.2073    
   1744000  -1812.0666      8.8901836     -1803.1764      280.7243       3538.9596      2683.2073    
   1745000  -1812.0253      9.0113554     -1803.014       284.55053      3587.195       2683.2073    
   1746000  -1811.9099      9.1306188     -1802.7793      288.31649      3634.6708      2683.2073    
   1747000  -1812.2974      8.4923355     -1803.8051      268.1615       3380.5862      2683.2073    
   1748000  -1812.9822      8.6911689     -1804.2911      274.44004      3459.7368      2683.2073    
   1749000  -1812.4879      8.9122345     -1803.5757      281.4206       3547.7375      2683.2073    
   1750000  -1812.7712      9.6244789     -1803.1467      303.91106      3831.2641      2683.2073    
   1751000  -1812.2975      8.6609484     -1803.6366      273.48577      3447.7068      2683.2073    
   1752000  -1811.1734      8.8053542     -1802.368       278.04565      3505.1911      2683.2073    
   1753000  -1810.7251      7.62172       -1803.1034      240.67017      3034.016       2683.2073    
   1754000  -1811.3773      9.1396124     -1802.2377      288.60048      3638.2509      2683.2073    
   1755000  -1810.8553      8.9599638     -1801.8954      282.92774      3566.7373      2683.2073    
   1756000  -1811.5917      8.3505572     -1803.2411      263.68458      3324.1478      2683.2073    
   1757000  -1812.6022      8.3913432     -1804.2109      264.97247      3340.3837      2683.2073    
   1758000  -1812.3781      9.474567      -1802.9035      299.17731      3771.588       2683.2073    
   1759000  -1812.3898      9.3236987     -1803.0661      294.41336      3711.5311      2683.2073    
   1760000  -1811.7287      8.947666      -1802.781       282.53941      3561.8419      2683.2073    
   1761000  -1812.3538      7.8534464     -1804.5003      247.98737      3126.2604      2683.2073    
   1762000  -1812.0334      9.4932703     -1802.5401      299.7679       3779.0333      2683.2073    
   1763000  -1812.6758      9.5645336     -1803.1112      302.01817      3807.4014      2683.2073    
   1764000  -1812.922       9.5125873     -1803.4095      300.37787      3786.7229      2683.2073    
   1765000  -1812.552       9.803504      -1802.7485      309.56411      3902.5296      2683.2073    
   1766000  -1812.4983      8.6563749     -1803.8419      273.34135      3445.8862      2683.2073    
   1767000  -1810.7277      9.3930197     -1801.3346      296.6023       3739.126       2683.2073    
   1768000  -1810.567       8.5211269     -1802.0458      269.07064      3392.0473      2683.2073    
   1769000  -1810.8633      9.209307      -1801.654       290.80122      3665.9946      2683.2073    
   1770000  -1811.8838      8.5849146     -1803.2989      271.08485      3417.4396      2683.2073    
   1771000  -1811.0681      8.6801555     -1802.388       274.09227      3455.3526      2683.2073    
   1772000  -1811.9703      9.0859313     -1802.8844      286.9054       3616.8818      2683.2073    
   1773000  -1811.9975      8.4986366     -1803.4989      268.36047      3383.0945      2683.2073    
   1774000  -1812.3362      9.5216368     -1802.8146      300.66362      3790.3253      2683.2073    
   1775000  -1811.3187      8.8315677     -1802.4871      278.87339      3515.626       2683.2073    
   1776000  -1812.1688      9.6726498     -1802.4962      305.43214      3850.4398      2683.2073    
   1777000  -1812.1571      9.6130266     -1802.544       303.54943      3826.7053      2683.2073    
   1778000  -1813.0198      8.3492015     -1804.6706      263.64177      3323.6081      2683.2073    
   1779000  -1812.4067      9.7835483     -1802.6231      308.93397      3894.5857      2683.2073    
   1780000  -1812.049       8.4119344     -1803.6371      265.62268      3348.5805      2683.2073    
   1781000  -1812.3027      9.762223      -1802.5405      308.26059      3886.0966      2683.2073    
   1782000  -1812.2197      9.0274388     -1803.1922      285.05839      3593.5974      2683.2073    
   1783000  -1812.0344      8.0526158     -1803.9818      254.27652      3205.5448      2683.2073    
   1784000  -1811.5688      9.1011286     -1802.4677      287.38528      3622.9315      2683.2073    
   1785000  -1812.1952      9.2792947     -1802.9159      293.01122      3693.855       2683.2073    
   1786000  -1812.0593      9.2683217     -1802.791       292.66472      3689.4869      2683.2073    
   1787000  -1812.5274      8.6153962     -1803.912       272.04737      3429.5736      2683.2073    
   1788000  -1811.6002      8.3818929     -1803.2183      264.67406      3336.6218      2683.2073    
   1789000  -1813.1097      8.8730761     -1804.2367      280.1841       3532.1495      2683.2073    
   1790000  -1813.1384      9.0193258     -1804.1191      284.80221      3590.3678      2683.2073    
   1791000  -1811.3757      8.8984772     -1802.4772      280.98619      3542.261       2683.2073    
   1792000  -1811.9876      8.7197595     -1803.2678      275.34284      3471.118       2683.2073    
   1793000  -1811.7291      7.8833083     -1803.8458      248.93032      3138.1477      2683.2073    
   1794000  -1811.7596      8.8551835     -1802.9044      279.61911      3525.0269      2683.2073    
   1795000  -1812.0664      9.6594958     -1802.4069      305.01678      3845.2035      2683.2073    
   1796000  -1812.1109      8.726805      -1803.3841      275.56531      3473.9226      2683.2073    
   1797000  -1811.3858      8.9064864     -1802.4793      281.23909      3545.4493      2683.2073    
   1798000  -1811.4224      9.2970099     -1802.1253      293.57061      3700.9069      2683.2073    
   1799000  -1810.1528      9.1995266     -1800.9533      290.49239      3662.1013      2683.2073    
   1800000  -1810.8746      8.847405      -1802.0272      279.37348      3521.9305      2683.2073    
   1801000  -1811.6018      8.7907563     -1802.8111      277.58469      3499.38        2683.2073    
   1802000  -1811.3425      8.9502848     -1802.3923      282.62211      3562.8843      2683.2073    
   1803000  -1810.709       9.8737981     -1800.8352      311.78378      3930.5119      2683.2073    
   1804000  -1810.4863      9.3433462     -1801.143       295.03376      3719.3522      2683.2073    
   1805000  -1810.8413      8.8884607     -1801.9528      280.6699       3538.2737      2683.2073    
   1806000  -1812.1911      8.6258901     -1803.5652      272.37873      3433.7509      2683.2073    
   1807000  -1811.7384      8.0371448     -1803.7013      253.78799      3199.3862      2683.2073    
   1808000  -1809.8764      9.7564845     -1800.1199      308.07938      3883.8123      2683.2073    
   1809000  -1811.2581      8.5427266     -1802.7154      269.75269      3400.6456      2683.2073    
   1810000  -1810.8988      8.8591663     -1802.0396      279.74487      3526.6123      2683.2073    
   1811000  -1811.2525      9.1592794     -1802.0933      289.22151      3646.0799      2683.2073    
   1812000  -1809.9587      9.0916287     -1800.8671      287.08531      3619.1498      2683.2073    
   1813000  -1810.7632      8.6545136     -1802.1086      273.28258      3445.1452      2683.2073    
   1814000  -1811.3675      8.6312251     -1802.7363      272.5472       3435.8747      2683.2073    
   1815000  -1812.0241      9.7408808     -1802.2833      307.58667      3877.6008      2683.2073    
   1816000  -1811.5031      9.5468054     -1801.9563      301.45837      3800.3443      2683.2073    
   1817000  -1811.4327      8.8815149     -1802.5512      280.45057      3535.5088      2683.2073    
   1818000  -1812.5588      7.9887648     -1804.5701      252.2603       3180.1273      2683.2073    
   1819000  -1811.999       8.4027522     -1803.5963      265.33274      3344.9253      2683.2073    
   1820000  -1811.8664      9.1546519     -1802.7118      289.07539      3644.2378      2683.2073    
   1821000  -1811.0053      8.8104463     -1802.1949      278.20644      3507.2181      2683.2073    
   1822000  -1810.6651      9.293353      -1801.3718      293.45513      3699.4512      2683.2073    
   1823000  -1811.9448      8.4655365     -1803.4792      267.31527      3369.9182      2683.2073    
   1824000  -1811.1994      8.0429684     -1803.1565      253.97188      3201.7044      2683.2073    
   1825000  -1810.4785      9.4343822     -1801.0442      297.9084       3755.5914      2683.2073    
   1826000  -1811.2123      9.9357657     -1801.2766      313.74052      3955.1796      2683.2073    
