246
Lattice="10.140377178 0.0 0.0 0.0 8.78182424 0.0 0.0 0.0 30.131127158" Properties=species:S:1:pos:R:3:initial_charges:R:1:forces:R:3 stress="0.008533147858051681 0.0015656763227186897 -0.0003992943048192556 0.0015656763227186897 0.007975518949727018 0.002395784553442911 -0.0003992943048192556 0.002395784553442911 0.006853177020219817" free_energy=-1807.76291962 energy=-1810.0676182332634 pbc="T T T"
Cu       7.10376000       1.18262000       9.92275000      -0.07510500      -0.24216200      -0.21820500       0.30453700
Cu       9.51884000       1.14612000       9.88344000       0.00843700       0.27776700      -0.18320500       0.41736400
Cu       1.87674000       1.04836000       9.97680000      -0.04170500       0.27765300       0.20668100      -0.11911600
Cu       4.53134000       1.05738000       9.88060000      -0.03550400      -0.12999100       0.11786500       0.30498800
Cu       8.42079000       3.41315000       9.82774000      -0.00338600      -0.30229600      -0.65107600       0.39809100
Cu       0.65852000       3.29721000       9.98641000      -0.04056900       0.37088400      -0.02984600      -0.09227700
Cu       3.16189000       3.20836000       9.95384000       0.02002200       0.19874900       0.12174300       0.08382500
Cu       5.88074000       3.33515000       9.81086000       0.09802200      -0.70394500      -0.23567600      -0.28967400
Cu       9.65264000       5.54678000       9.99729000       0.01811000      -0.14434700      -0.34310100      -0.47233100
Cu       1.93920000       5.46563000       9.93820000       0.01693400       0.28075700       0.01953700      -0.14604800
Cu       4.41326000       5.47651000       9.96725000       0.00908300       0.52446700       0.09896100       0.10995400
Cu       7.14039000       5.41905000       9.90823000      -0.01196400      -0.35922400       1.09631800      -0.17359400
Cu       0.73876000       7.68163000       9.91025000      -0.05534700      -0.02000700       0.12467900       0.25973400
Cu       3.19653000       7.64695000       9.94102000      -0.08121200       0.08996300       0.43326300      -0.21317400
Cu       5.79353000       7.60993000       9.93901000      -0.04504000       0.02474300       0.16551600       0.28217800
Cu       8.43795000       7.64439000       9.94693000      -0.03988800      -0.89342400       0.30327300      -0.18762500
Cu       5.66589000       1.90988000      12.00090000       0.00862000      -0.08492300      -0.02449200      -0.52264200
Cu       8.19558000       1.91349000      12.02740000       0.02788400       0.44323500      -0.07121100      -0.49122000
Cu       0.63149000       1.94193000      12.04080000       0.02150100      -0.37095100      -0.66725900      -0.45370600
Cu       3.05933000       1.79070000      12.00610000       0.01896600       0.84708700       0.72475300      -0.33634100
Cu       6.95784000       4.08682000      11.82860000       0.02633100       0.20979500      -0.58043100       0.83495700
Cu       9.58238000       4.03805000      12.03830000       0.01659100      -0.63525300       0.20496300      -0.38525200
Cu       1.87626000       4.12602000      12.01370000       0.02291300       0.58054800      -0.46001400      -0.28344200
Cu       4.34878000       4.06188000      11.94080000       0.01422900       0.43043600      -0.07659800       0.03868100
Cu       8.36683000       6.19662000      11.98590000       0.01731200      -0.56896500       0.04877700      -0.03404700
Cu       0.74654000       6.23657000      11.98180000       0.02898400      -0.47249400       0.34858800       0.07909600
Cu       3.16365000       6.38128000      11.96340000       0.02181400       0.36174700      -0.77220700       0.21879100
Cu       5.85348000       6.19986000      12.07430000       0.01485000      -0.70437000       0.45080400      -0.89992600
Cu       9.48996000       8.33533000      11.96770000       0.02121700       0.29429300       0.92561700       0.04526900
Cu       1.83654000       8.54118000      12.09290000       0.01122400       0.01706300      -0.75330700      -0.80922600
Cu       4.36538000       8.47008000      11.94680000       0.01436200       0.71442200      -0.00963500       0.08516400
Cu       6.97660000       8.54937000      11.93040000       0.02083400      -0.07562000      -0.59938900       0.05008100
Cu       5.70396000       0.36591000      14.03060000       0.03033500      -0.01486300      -0.01068600      -0.07217500
Cu       8.23906000       0.36591000      14.03060000       0.00435400       0.02261000      -0.02988900       0.01977400
Cu       0.63377000       0.36591000      14.03060000      -0.02193600      -0.30189900       0.09344200       0.40623100
Cu       3.16887000       0.36591000      14.03060000       0.00266800       0.13795600      -0.00033700       0.37863800
Cu       6.97151000       2.56137000      14.03060000       0.02523800      -0.07581600       0.15056400       0.11399100
Cu       9.50660000       2.56137000      14.03060000      -0.03091800      -0.11225800      -0.00034100       0.38731200
Cu       1.90132000       2.56137000      14.03060000       0.00979300       0.06252800       0.10499800       0.30442000
Cu       4.43642000       2.56137000      14.03060000      -0.00694100      -0.10567500       0.07133700       0.05333700
Cu       8.23906000       4.75682000      14.03060000       0.03085900      -0.14998900      -0.09112200      -0.03090100
Cu       0.63377000       4.75682000      14.03060000      -0.02200000       0.02873700       0.09585300       0.41473100
Cu       3.16887000       4.75682000      14.03060000      -0.00111300       0.04103400       0.09669000       0.06966300
Cu       5.70396000       4.75682000      14.03060000       0.00245600      -0.02045100      -0.24805500       0.01260800
Cu       9.50660000       6.95228000      14.03060000       0.00200400       0.10360900      -0.04681500       0.17742600
Cu       1.90132000       6.95228000      14.03060000       0.00231800       0.03884200      -0.02009100       0.26967100
Cu       4.43642000       6.95228000      14.03060000      -0.00083100       0.07484900       0.01847200       0.00681600
Cu       6.97151000       6.95228000      14.03060000      -0.00330200       0.26691000       0.16907900       0.18072700
Cu       6.97151000       1.09773000      16.10050000       0.03020000       0.03307900      -0.01349000       0.50130500
Cu       9.50660000       1.09773000      16.10050000      -0.00776700      -0.13551800       0.12419400       0.18678500
Cu       1.90132000       1.09773000      16.10050000       0.00187100       0.03044400       0.11476900       0.02389500
Cu       4.43642000       1.09773000      16.10050000      -0.02743600      -0.12940800       0.19433900      -0.13859100
Cu       8.23906000       3.29318000      16.10050000      -0.00664300      -0.13901600      -0.21279600       0.05538600
Cu       0.63377000       3.29318000      16.10050000      -0.01160500      -0.31783100      -0.04497800      -0.31047700
Cu       3.16887000       3.29318000      16.10050000      -0.00645400      -0.14236200      -0.11035000       0.01444800
Cu       5.70396000       3.29318000      16.10050000      -0.01359900      -0.20682500      -0.10354400      -0.07076700
Cu       9.50660000       5.48864000      16.10050000       0.00013900      -0.12496300       0.02822300      -0.00307400
Cu       1.90132000       5.48864000      16.10050000      -0.00443100      -0.13673700       0.07734400      -0.16078200
Cu       4.43642000       5.48864000      16.10050000       0.00034600      -0.12630200      -0.04544800       0.11028200
Cu       6.97151000       5.48864000      16.10050000       0.00408600      -0.13023700       0.01054600       0.10502000
Cu       0.63377000       7.68410000      16.10050000      -0.02448700      -0.10019500       0.02854700      -0.10653300
Cu       3.16887000       7.68410000      16.10050000      -0.00406300      -0.07275300       0.03205300      -0.15676300
Cu       5.70396000       7.68410000      16.10050000       0.03183200       0.16025000       0.00599800       0.18028200
Cu       8.23906000       7.68410000      16.10050000      -0.00242000      -0.12641200       0.04147100       0.20889200
Cu       5.56360000       1.76308000      18.20720000       0.00288400       0.51005000       0.46568400       0.06364500
Cu       8.09820000       1.79035000      18.45350000       0.01076600      -0.16514200       0.04180800      -1.21360000
Cu       0.62539000       1.87289000      18.16070000       0.02342200      -0.66908300      -0.13641700       0.25188400
Cu       3.06128000       1.75258000      18.30790000       0.02184700       0.17126500       0.81704000      -0.86934700
Cu       6.82957000       3.95045000      18.12830000       0.01226500      -0.10906400       0.27589000       0.67615200
Cu       9.27721000       4.06633000      18.16270000       0.00621100       0.44263100      -0.17736400       0.37222100
Cu       1.70367000       4.02436000      18.07980000       0.00828600       0.35640200       0.30969600       0.78907000
Cu       4.26068000       3.93697000      18.17710000       0.00203600       0.35913200       0.49358000      -0.14639700
Cu       8.05595000       6.22267000      18.19710000       0.01620400       0.07876100       0.00728700       0.13623700
Cu       0.46148000       6.29843000      18.16620000       0.01135200      -0.05064800      -0.45245600       0.03518200
Cu       2.97440000       6.28530000      18.15010000       0.00820600       0.39706400      -0.30553500       0.17659700
Cu       5.52010000       6.22171000      18.19920000       0.02139000       0.24202300       0.24058700      -0.37192600
Cu       9.41765000       8.45664000      18.16270000       0.00243500      -0.23577200      -0.03966000       0.11568900
Cu       1.79272000       8.44456000      18.13940000       0.02405500      -0.07595900      -0.14471100      -0.07070800
Cu       4.40108000       8.46607000      18.08730000       0.00340100      -0.43494300      -0.68996100       0.42827200
Cu       6.90705000       8.36797000      18.41890000       0.02485900      -0.07000900       0.19257400      -0.48783500
Cu       5.35930000       0.34126000      20.24960000      -0.06777000       0.29769200       0.58862300       0.18093400
Cu       8.21878000       0.39728000      20.44450000       0.00137100      -1.13850800      -0.05945000      -0.07783300
Cu       0.39809000       0.38771000      20.22950000      -0.03433600       0.64127600       0.07207500      -0.03618900
Cu       2.83069000       0.41615000      20.17920000      -0.07385000       0.71502100      -0.52981400       0.71957100
Cu       6.74421000       2.58863000      20.42020000      -0.04695200       0.28197300       0.10106000      -0.62203900
Cu       9.37548000       2.54822000      20.22340000      -0.07237300       0.31854600       0.79260000       0.32966300
Cu       1.80797000       2.59349000      20.36930000      -0.05532300      -0.44245200       0.25414800      -0.52257400
Cu       4.34000000       2.65816000      20.26060000      -0.05374800      -0.21477100      -0.19420400       0.08564500
Cu       7.96703000       4.92370000      20.36860000      -0.04583400       0.09782700      -0.58095800      -0.49179300
Cu       0.42294000       4.82836000      20.22180000      -0.05845300       0.06439500      -0.32882900      -0.22093400
Cu       3.01319000       4.73373000      20.12410000      -0.09143100      -0.34494300       0.36764800      -0.07380500
Cu       5.49569000       5.03006000      20.18910000      -0.05832300       0.20626300      -1.38163000       0.39915900
Cu       9.25197000       6.97887000      20.28560000      -0.02132600       0.14669900       0.03650700      -0.35909100
Cu       1.63626000       7.00773000      20.17780000      -0.05823700       0.25490100      -0.16494600       0.14573100
Cu       4.19647000       6.99697000      20.26430000      -0.02905100      -0.47596900       0.28622200      -0.25957100
Cu       6.67772000       7.12322000      20.56960000      -0.04107500       0.39355300      -0.26770400      -0.58968500
O        8.29764000       3.19985000      23.27860000      -1.34575000      -3.79863500       0.34718300      -0.90253100
O        8.70647000       7.26146000       1.47937000      -1.29737500       0.05160900       1.81610100       0.67832000
O        1.45822000       8.47623000      23.81550000      -1.30803600      -0.56437700      -0.11684300       0.43115100
O        4.98228000       2.65154000      23.64900000      -1.29482400       0.72545100       1.07237700      -0.35096900
O        7.34168000       2.71351000      27.46810000      -1.32347800      -1.69287900      -0.81868300      -0.32260000
O        3.06843000       3.03541000      25.43320000      -1.34812000      -0.33587700      -0.52490700       0.74862100
O        0.18231000       5.12790000       1.80966000      -1.34974700       0.43296400       0.00060900      -0.41979100
O        5.85721000       6.13093000      29.67670000      -1.26205700       1.66070500      -0.25716300       0.11520900
O        6.44401000       5.08468000      24.09630000      -1.34058000      -1.93100200       0.59688500       0.74864200
O        4.54347000       7.48466000      23.73840000      -1.29374100      -0.17414000      -2.14052600      -0.54856000
O        8.27127000       7.00623000      28.37990000      -1.30746100       0.00418400      -1.26899200      -0.52653900
O        9.16378000       8.66564000      26.10230000      -1.31278000       0.95591800      -1.12303100       0.59824400
O        8.00307000       0.44708000       5.05602000      -1.34914100      -0.10440300      -0.13901300      -0.64207800
O        3.65285000       8.43632000      26.00910000      -1.34860200      -0.71208600      -0.19642000      -0.60907300
O        8.94592000       2.59695000      29.71660000      -1.31560700       0.11085400       0.73355500      -0.71189000
O        6.11708000       8.69121000      27.25060000      -1.32905600       0.52168100       0.20539400       0.39664900
O        3.09660000       8.58615000       1.09840000      -1.24884200      -1.55778300      -1.04793000       1.63526000
O       10.03210000       0.75800000       1.28598000      -1.37086800       0.68996800      -0.52330100       0.62651300
O        0.80167000       3.12035000      23.41720000      -1.25349100       0.04369700      -0.47205500      -2.12012600
O        2.77437000       1.32205000       5.58770000      -1.39190600      -1.65139700      -0.73406800       1.13521100
O        1.33277000       4.28798000      28.95100000      -1.38352300      -0.21775500       0.70335200       2.87575600
O        5.85083000       6.98214000       2.17536000      -1.33199100       0.58141200      -2.53896400      -0.12546300
O       10.06412000       5.60937000      24.70460000      -1.34033900       0.37079000       0.72458100       2.32516800
O        8.66683000       7.24488000      23.24140000      -1.28789200      -1.26622500       0.77356000      -0.35985700
O        6.40947000       3.60417000       0.49888000      -1.32649300      -1.62844100      -0.34436300      -0.02709400
O        7.15800000       6.00763000       6.15172000      -1.28303800      -1.53181600       1.51836900       0.12590900
O        9.83749000       7.56065000       6.31590000      -1.33222300       0.89372200      -1.03130300       0.51820000
O        1.99391000       7.67041000       5.27958000      -1.36532300       1.02387700      -0.10307400      -0.31374300
O        2.46518000       6.32527000       2.68776000      -1.34714400      -0.99679600       1.81808000      -0.15845500
O        2.69981000       2.27491000      28.04900000      -1.35185700      -0.44559900      -0.99077900      -1.73516900
O        4.55477000       1.76307000      30.00285000      -1.34176800      -0.89818200      -0.48123600      -0.16322900
O        5.76361000       3.67986000       7.28000000      -1.30704900       0.76569000       0.34534700       0.33966000
O        7.21449000       0.93030000      24.60590000      -1.32313000       1.90429300       2.03550700      -1.39299300
O        4.51346000       7.24577000       6.76073000      -1.26639700      -1.24908800       0.44019900       0.31701200
O        9.19730000       4.74328000      27.01500000      -1.32760000       0.10937200      -1.05668100      -1.27688500
O        9.73194000       5.00785000       6.98387000      -1.31156100       0.06752300      -0.67118400       0.39840300
O        0.31446000       1.28428000       7.10667000      -1.25999900      -0.06900600       1.25107300       0.81254100
O        2.94995000       4.14098000       7.36448000      -1.28880200       0.07684800      -0.19739800      -0.41021700
O        2.76837000       5.45340000      23.23100000      -1.28715600       0.61375600       0.31365600       1.22920600
O       10.08006000       2.01503000       3.99784000      -1.28979800       1.68339100       0.17213900      -0.46960300
O        4.22948000       3.82795000       4.30810000      -1.32509700      -0.64515700      -0.79914000      -1.64333800
O        5.49502000       0.50219000       3.60927000      -1.30888300       0.63854600      -1.40356100       0.40560800
O        3.77880000       6.40159000      27.72560000      -1.40998100      -0.94132900      -2.36299300       1.40022000
O        5.73359000       4.65153000      26.80540000      -1.32122500       0.07988300      -0.17984400       0.05523500
O        2.32347000       3.32803000       1.77110000      -1.30926800      -1.50656800       1.79197500       1.72813100
O        0.86672000       7.25216000      29.33590000      -1.35727900      -1.31774500       1.64547800      -0.83099400
O        1.33729000       0.22306000      27.36470000      -1.35460900       0.01556200      -0.38432800      -0.46886300
O        6.53534000       4.43811000       3.21005000      -1.32709600       0.61470600      -0.99734800      -0.47497000
O        8.94704000       4.22366000       4.15217000      -1.29865400      -0.09063000       0.28160600       1.65305100
O        6.17383000       0.85927000       7.01544000      -1.30824600       0.23818100       0.32878400       0.35694800
H        8.13737000       3.19418000      22.30620000       0.58624500       0.05228500      -0.12977100       0.49438000
H        9.21347000       3.17162000      23.35580000       0.68817500       3.34793700      -0.20041400       0.60263400
H        7.75725000       7.36974000       1.69336000       0.63183000       0.18971600      -0.41916000      -0.06981500
H        9.09166000       8.18199000       1.71010000       0.64102400      -0.41362300      -1.46236400      -0.81948200
H        9.59227000       3.34356000      29.66960000       0.63971000      -0.31440300      -0.61547100      -0.20875400
H        1.58175000       8.43088000      22.84840000       0.62454000      -0.79772200      -0.11542900       0.52590100
H        5.04894000       2.19192000      22.81500000       0.60909500      -0.10337000      -0.55260600      -0.54218200
H        5.42880000       3.51442000      23.43980000       0.65361000      -0.51313600      -0.51150800       0.70891400
H        6.56421000       3.34476000      27.45790000       0.65733200       0.83720100       0.34250800      -0.05587500
H        6.81319000       1.90537000      27.22480000       0.66056600       1.11466200       0.08986400       0.40523300
H        6.82955000       6.34489000      29.54100000       0.62462800      -1.11400500       0.51894400      -0.36130700
H        2.63868000       3.73614000      24.97740000       0.65876600      -0.81464300       1.22568200      -0.35172900
H        7.62457000       0.73078000       5.90724000       0.67784200      -0.38470300      -0.01979800      -0.28581400
H        9.76882000       5.89592000       1.57830000       0.69109800      -0.30496700       0.12530100       0.02682100
H        9.02169000       7.08425000      28.98650000       0.64961800       0.17504500      -0.00161100      -0.05203100
H        5.99323000       5.16187000      29.76780000       0.63782600      -0.57465400      -0.15724700       0.30658000
H        6.26281000       5.96521000      23.75430000       0.66031500      -0.13335300       0.24545800       0.10412100
H        4.11034000       6.60148000      23.44610000       0.65072700       0.33766200       1.40117000       0.67297100
H        4.37907000       8.03537000      22.97800000       0.61492000      -0.03524900       0.51638300      -0.51691800
H        2.57686000       0.37913000       5.30389000       0.68577400       0.25852500       0.53671500       0.15810000
H        8.44603000       6.12901000      27.90300000       0.66106800      -0.10779400       1.08434000       0.44000100
H        0.06282000       5.23951000      23.87700000       0.64738100       0.46143600      -1.47715300      -2.28050000
H        8.41700000       0.39730000      25.83900000       0.66590400      -1.08075200       1.11734200      -0.85867100
H        8.75367000       8.10786000      26.78410000       0.64480200       0.11245100      -0.33954000       0.35917500
H        3.66865000       2.73783000      24.75020000       0.69008700       0.81112400      -0.49830000      -0.23154400
H        7.24559000       0.43651000       4.40664000       0.66831100       0.45052900       0.10128300       0.78050000
H        2.70908000       8.59484000      26.19280000       0.66458100       0.01333600       0.45069000       0.58126100
H        3.59246000       8.00806000      25.12980000       0.68062200       0.71654100       0.28743900       0.16763600
H        9.86413000       4.74337000       2.56705000       0.65521600      -0.04700700      -0.10725500       0.40456100
H        8.51112000       2.55583000      28.81560000       0.67563200       0.34100100       0.05265700       0.72423600
H        5.20211000       8.75886000      26.93310000       0.68038400      -0.14576100      -0.35771600       0.35224200
H        3.12289000       7.63479000       1.40191000       0.64684700       0.57381300       0.80841000      -0.46606900
H        2.29628000       0.02110000       1.64825000       0.59410800       0.89031900       0.40860500      -0.98175100
H        0.11237000       1.42968000       1.93938000       0.67390000      -0.08863800       0.14521500       0.30337600
H        9.82945000       1.25870000       0.49124000       0.70227300      -0.52819100       0.48979100      -0.65156300
H        1.15902000       2.32678000      23.84710000       0.65598000       0.04300800      -0.04044400      -0.05457900
H        0.83015000       2.91873000      22.40090000       0.55188700       0.15068300       0.28142600       2.11774800
H        6.15580000       8.21734000      28.10840000       0.64918000      -0.30163900       0.40043300      -0.94204100
H        3.44125000       1.69818000       5.05756000       0.67200000       1.37675700       0.71107400      -1.10972000
H        1.86825000       3.54510000      28.67170000       0.69939600       0.55613400      -0.87040100      -0.85412600
H        0.90019000       4.69418000      28.23470000       0.65953400      -0.81942500       0.35580200      -1.66926700
H        7.16605000       4.74914000      23.61730000       0.67514800       1.99678300      -0.85268500      -0.85298700
H        6.15949000       6.10735000       2.62564000       0.65286700      -0.45043900       1.61448900      -0.19096700
H        5.70085000       6.58248000       1.26261000       0.65904700       0.01800300       0.96475500       0.29850800
H        9.34733000       6.22175000      24.54300000       0.70461000      -0.41911000       0.48663500      -0.09293800
H        8.23156000       7.12439000      22.36350000       0.56716500       0.46651000      -0.23643200       0.25210100
H        5.73012000       2.92978000       0.15778000       0.67463000       0.76934900       0.59569500       0.49251400
H        6.49062000       6.76757000       6.18741000       0.62574400       1.37549700      -1.14772900      -0.11794800
H        7.24630000       3.36753000       0.10320000       0.65234100       0.90501800      -0.51846200      -0.20097900
H        8.04410000       7.89512000      23.63350000       0.65449200       0.48383900       0.11299900       0.28435600
H        6.53499000       5.28874000       6.32175000       0.64602800       0.17513700      -0.51538200       0.09246900
H       10.01240000       8.14142000       7.05620000       0.66226700      -0.19994000       0.75993700       0.25676700
H        9.06062000       7.87080000       5.86742000       0.69880600      -1.13533400       0.68619500      -0.66977900
H        1.06254000       7.64655000       5.58253000       0.68684400      -0.41157300      -0.12781800       0.09178300
H        3.22358000       5.83523000       2.92914000       0.65569000       1.06190400      -1.19001800       0.17213700
H        2.77269000       2.56746000      27.09010000       0.67476300       0.61369500       0.15918700       1.03097200
H        2.01805000       7.27148000       4.39671000       0.67949100       0.10355900      -0.29165500      -0.33950100
H        2.16247000       1.43103000      27.82220000       0.67368300       0.23842300       0.83366400       0.79593700
H        4.14302000       1.09956000       0.45122000       0.66427900       0.46855400      -0.25372600       0.39983800
H        3.93122000       1.64991000      29.24520000       0.67004200       0.54836400       0.92056600      -0.27214800
H        4.91408000       4.00716000       7.01078000       0.65485600      -1.23618100       0.71326400       0.19372100
H        7.26972000       1.89778000      24.26200000       0.64488500      -0.22801700      -2.24616000       0.69789300
H        5.78173000       2.86749000       6.78123000       0.66017700       0.52887000      -1.14782500      -0.10484600
H        6.33688000       0.73606000      24.85460000       0.68503100      -1.66595700      -0.03807600       0.46452100
H        2.77364000       2.78168000       1.19469000       0.63684700       1.73925800      -1.85107500      -2.05770800
H        3.63043000       7.33782000       6.28496000       0.65659800       1.03800600      -0.07524300       0.63711300
H        4.31970000       7.44250000       7.72185000       0.55798000       0.09566400      -0.33300100      -1.11982400
H        8.70004000       3.90110000      26.85220000       0.65366000       0.10259800       0.73394300       0.67958600
H        8.77841000       5.08523000       7.06171000       0.63201800      -0.57119800      -0.15027700       0.07001000
H        1.27615000       1.35236000       6.93475000       0.63662100      -0.35284000       0.15111900      -0.12030700
H        9.92690000       5.94933000       6.88763000       0.66516600       0.30673900       0.40347100      -0.27025400
H        9.62258000       4.86514000      26.11050000       0.66172300      -0.36056900       0.39317400       1.01181500
H        0.06914000       2.12420000       7.59865000       0.59871500       0.46741400      -1.17405500      -0.79862500
H        2.88315000       4.62040000       6.52248000       0.64197000      -0.10331900      -0.02171700       0.12193300
H        2.81263000       3.21482000       7.10483000       0.65329800      -0.03093000       0.14120600      -0.08107400
H        1.78408000       5.79088000       2.23462000       0.69083600      -0.18084300      -0.49733200       0.33204800
H        0.85344000       1.82242000       4.28264000       0.62970500      -0.31049700       0.28928300       0.00534100
H        3.72306000       3.62132000       3.46852000       0.60938700       0.13418600       0.34300500       1.27234900
H        9.54913000       1.38767000       4.46673000       0.68249800      -1.10905200      -1.11919700       0.65262300
H        1.98110000       5.99902000      23.40040000       0.64575200       0.18630100      -0.23382600      -0.47902800
H        5.14239000       3.87796000       3.91148000       0.67650300       0.00730200       0.48415100       0.49054700
H        5.55817000       8.54371000       2.94925000       0.66503500      -0.16975700       0.22513800       0.41193600
H        5.19471000       1.24949000       3.12791000       0.64006800      -0.32731100       1.03164900      -0.71972400
H        0.53489000       8.23098000      24.10900000       0.65567700       1.24258200       0.29947800      -1.01344400
H        3.79616000       7.09195000      27.08630000       0.69221100       0.86193400       1.33396800      -0.77948800
H        6.00691000       4.69244000      25.88280000       0.64922300       0.21073500       0.08177300      -0.23054900
H        4.57674000       6.21013000      28.24590000       0.68850300       0.01638300       0.96902500      -0.32033900
H        4.83195000       4.99603000      26.80360000       0.66947400      -0.35177400       0.12590300       0.26505300
H        1.78225000       3.88762000       1.18411000       0.66608600      -0.05039900      -0.10415700       0.29828500
H        2.81279000       5.07893000      22.34900000       0.61358600      -0.62990400       0.02382400      -0.40327400
H        0.72389000       7.66043000       0.04952000       0.67075400      -0.05338000       0.62852500       0.64460900
H        1.30169000       6.46075000      29.51500000       0.70884700       1.41225200      -2.53122900       0.27914800
H        0.46276000       0.18987000      26.91840000       0.69278400      -0.08207600       0.22235500      -0.07590500
H        1.35803000       8.23422000      27.95630000       0.68011500      -0.06144400      -0.01382900       0.37420900
H        6.57480000       3.94346000       2.34231000       0.66426200      -0.00562400       0.58122200       0.44600400
H        7.40655000       4.19896000       3.68544000       0.66032000      -0.60638000       0.48509800      -0.66402100