246
Lattice="10.140377178 0.0 0.0 0.0 8.78182424 0.0 0.0 0.0 30.131127158" Properties=species:S:1:pos:R:3:initial_charges:R:1:forces:R:3 NELECT0=1456.0 NELECT=1456.380546457033 U_vs_SHE=-0.7480720990550975 stress="0.013803409507347122 -0.002028590330058073 -0.00021878986089871174 -0.002028590330058073 0.011747075669224494 0.0015716619299704112 -0.00021878986089871174 0.0015716619299704112 0.005849230277321494" free_energy=-1810.29454586 energy=-1811.3159230523388 pbc="T T T"
Cu       7.06311000       1.18155000       9.77517000      -0.03808500      -0.24240400      -0.33747500       0.58347200
Cu       9.60808000       1.25234000       9.96828000      -0.04852500      -0.21963400      -0.18997300       0.25924300
Cu       2.05057000       1.15063000       9.94471000      -0.04932800      -0.27647400      -0.24956000       0.16611400
Cu       4.52008000       1.03082000       9.80435000      -0.08043200      -0.04524600       0.25809200       0.26131200
Cu       8.09069000       3.38275000       9.93975000      -0.01622500       0.76720900      -0.20424900      -0.10359600
Cu       0.75210000       3.37198000       9.88747000      -0.03865800      -0.05902900      -0.46587400      -0.11550400
Cu       3.23754000       3.25060000       9.92574000      -0.05780200       0.03012800       0.32940800      -0.15140700
Cu       5.65708000       3.34284000       9.85379000      -0.05306900       0.21264800      -0.65666100       0.12011900
Cu       9.60589000       5.44893000       9.81066000       0.15838800      -0.31246600       0.36548300      -0.12359900
Cu       2.09672000       5.51333000       9.68967000      -0.00554200      -0.54853600      -0.45064200       0.69367300
Cu       4.52652000       5.38766000       9.88701000      -0.05804600      -0.69353000       0.69154800      -0.10614500
Cu       6.87248000       5.55844000       9.92540000      -0.03833100       0.84595300      -0.05337600       0.01815300
Cu       0.65333000       7.69062000       9.79345000       0.15586200       0.17321700       0.25342700       0.07640800
Cu       3.21907000       7.55356000       9.93687000      -0.05259000       0.23810800       0.82931100      -0.00335900
Cu       5.70660000       7.71769000       9.86563000      -0.07891700       0.18067200       0.02942100      -0.00639400
Cu       8.27803000       7.68824000       9.94776000      -0.03901700       0.00358000       0.09791900       0.10609300
Cu       5.73185000       1.81873000      11.92150000       0.01165600       0.46215600      -0.09918700      -0.06423300
Cu       8.17473000       1.76044000      11.96020000       0.01426200       0.58591600       0.35385200      -0.09099900
Cu       0.77036000       1.81832000      11.99100000       0.01747800      -0.31062200       0.40003900      -0.15237200
Cu       3.42739000       1.87361000      11.93370000       0.01750200      -1.35162200      -0.01831300       0.12966700
Cu       6.91291000       3.98052000      11.90440000       0.02020000       0.20870600       0.45101100       0.55571100
Cu       9.57602000       4.03422000      11.83990000       0.02181500      -0.40953400      -0.45819400       0.47496600
Cu       1.89242000       4.06878000      11.87390000       0.02528300       0.58236200      -0.02667400       0.43806400
Cu       4.44295000       4.20626000      12.06870000       0.01109400      -0.02305400      -1.06276600      -0.61869700
Cu       8.30937000       6.11474000      12.01570000       0.01685800      -0.29818700       0.44467500      -0.69607600
Cu       0.67336000       6.19896000      11.94640000       0.04511700       0.05813200       0.28100100      -0.54328200
Cu       3.23474000       6.27290000      12.02880000       0.00437400      -0.83737100      -0.08248400      -0.43769600
Cu       5.64185000       6.31566000      11.87920000       0.01824100       0.73622700      -0.28723800       0.64493200
Cu       9.61647000       8.42990000      11.96950000       0.01667300      -0.62300800      -0.15127700      -0.32261000
Cu       1.85636000       8.43586000      11.91870000       0.00629700       0.72900000      -0.23598800       0.00536800
Cu       4.42591000       8.41035000      11.97990000       0.01754000       0.12923600       0.35250500      -0.17950800
Cu       7.04176000       8.33822000      11.90380000       0.02065700      -0.20720500       0.33366000       0.22884300
Cu       5.70396000       0.36591000      14.03060000       0.03358100       0.09719100      -0.03086900      -0.17740000
Cu       8.23906000       0.36591000      14.03060000      -0.00150400       0.00191400      -0.13315200      -0.11265700
Cu       0.63377000       0.36591000      14.03060000      -0.03074600       0.06464300      -0.02982200       0.17181100
Cu       3.16887000       0.36591000      14.03060000       0.00638100      -0.08294000       0.02623400      -0.15068600
Cu       6.97151000       2.56137000      14.03060000      -0.02326700      -0.00303000      -0.00062000      -0.07046900
Cu       9.50660000       2.56137000      14.03060000       0.02766900       0.00567600       0.01143500      -0.24801600
Cu       1.90132000       2.56137000      14.03060000       0.00203900       0.17475700       0.06845100      -0.09041500
Cu       4.43642000       2.56137000      14.03060000       0.00318000       0.16338800       0.03979400       0.10525500
Cu       8.23906000       4.75682000      14.03060000      -0.02637400       0.01102000      -0.23576600      -0.02146500
Cu       0.63377000       4.75682000      14.03060000       0.00315000      -0.01761500      -0.07135300      -0.20030200
Cu       3.16887000       4.75682000      14.03060000       0.00414200      -0.28387300       0.00943900       0.22392000
Cu       5.70396000       4.75682000      14.03060000       0.02621900       0.27704000       0.12403300       0.13586200
Cu       9.50660000       6.95228000      14.03060000       0.00061800       0.05143900      -0.01066300       0.04229200
Cu       1.90132000       6.95228000      14.03060000       0.00256800      -0.09006400       0.03754100      -0.01653600
Cu       4.43642000       6.95228000      14.03060000      -0.01615400       0.15223300       0.01916400       0.22869700
Cu       6.97151000       6.95228000      14.03060000       0.02482700       0.01990800      -0.05361800      -0.14216400
Cu       6.97151000       1.09773000      16.10050000      -0.00176500       0.13848100      -0.18397600      -0.07629900
Cu       9.50660000       1.09773000      16.10050000       0.00256500      -0.09658600      -0.09695100       0.13238900
Cu       1.90132000       1.09773000      16.10050000      -0.02603300      -0.18455800      -0.17855200      -0.31631800
Cu       4.43642000       1.09773000      16.10050000       0.02316700       0.07189100      -0.04164000      -0.09556400
Cu       8.23906000       3.29318000      16.10050000       0.00360800      -0.02411700      -0.07726200      -0.04534200
Cu       0.63377000       3.29318000      16.10050000       0.03533200       0.00707900       0.02364800       0.03349800
Cu       3.16887000       3.29318000      16.10050000      -0.02074400      -0.14227000       0.05361600      -0.17721100
Cu       5.70396000       3.29318000      16.10050000       0.00269900       0.01550200       0.04465300       0.04794400
Cu       9.50660000       5.48864000      16.10050000      -0.02266200      -0.09280500       0.12095400       0.03051200
Cu       1.90132000       5.48864000      16.10050000       0.00479900      -0.34855700      -0.11093300      -0.18818200
Cu       4.43642000       5.48864000      16.10050000      -0.00034600       0.01868100       0.04346200      -0.16698700
Cu       6.97151000       5.48864000      16.10050000       0.02583500       0.05995800       0.07489800       0.23401800
Cu       0.63377000       7.68410000      16.10050000       0.00406600      -0.23462600      -0.13554300      -0.12287700
Cu       3.16887000       7.68410000      16.10050000      -0.00183000      -0.02902600       0.10316200      -0.14441100
Cu       5.70396000       7.68410000      16.10050000       0.00502300       0.06640400      -0.00581100       0.18920000
Cu       8.23906000       7.68410000      16.10050000      -0.00631200      -0.09976100       0.12974100       0.24534600
Cu       5.79066000       1.76627000      18.11800000       0.01662100      -0.97707400       0.23762000       0.46797200
Cu       8.18851000       1.79913000      18.20540000       0.01547300       0.32227500      -0.38430000      -0.48569000
Cu       0.62956000       1.76913000      18.16870000       0.01140200      -0.27303000       0.09469700      -0.07307600
Cu       3.07685000       1.75526000      18.05440000       0.00947400       0.49268200       0.05353300       0.81393900
Cu       7.02288000       3.97547000      18.17900000       0.02175200      -0.68134200       0.22313600      -0.25113600
Cu       9.47027000       4.04620000      18.13950000       0.00997600       0.08340700      -0.01650300      -0.24876000
Cu       1.84058000       3.99057000      18.21820000       0.03075400      -0.17401000      -0.31665300      -0.17828300
Cu       4.34436000       4.01871000      18.12080000       0.01815400       0.43018400      -0.47722100      -0.00652000
Cu       8.21965000       6.36530000      18.24950000       0.00985400      -0.19548800      -0.77301300      -0.16855600
Cu       0.51422000       6.12864000      18.24310000       0.02411200       0.14737200       0.32764200       0.19033000
Cu       3.03580000       6.16418000      18.06610000       0.01643300       0.39425600       0.17706700       0.24093800
Cu       5.63708000       6.11203000      18.19720000       0.02515600       0.22968500       0.21603300      -0.43227500
Cu       9.48666000       8.37643000      18.24110000       0.01581000      -0.27422700       0.28313900       0.08142000
Cu       1.76015000       8.26513000      18.13300000       0.01885800       0.47296400       0.53286600       0.35071700
Cu       4.36910000       8.34885000      18.17600000       0.02107500       0.08610300       0.49468600      -0.34783800
Cu       6.83239000       8.37448000      18.33280000       0.02534700       0.30236300       0.13247900      -0.48708400
Cu       5.61320000       0.35874000      20.36780000       0.18555300      -0.13733600      -0.18016400      -0.45906600
Cu       8.13775000       0.39304000      20.28980000      -0.03073100       0.13942100       0.06585700      -0.25525400
Cu       0.54914000       0.42030000      20.29810000      -0.03092100      -0.07155900      -0.32643600      -0.29142500
Cu       3.04466000       0.23739000      20.14640000      -0.06692500      -0.13896800       0.41883500      -0.07144400
Cu       6.93722000       2.55155000      20.26460000      -0.04699800      -0.15824500       0.17173700      -0.25723300
Cu       9.39103000       2.67833000      20.04150000      -0.08394000       0.39735800      -0.78736200       1.03020000
Cu       1.86453000       2.38845000      20.28840000      -0.11254900       0.18556500       0.80982900      -0.34363300
Cu       4.39293000       2.52422000      20.09240000      -0.02709200      -0.35201400       0.00629700      -0.03473600
Cu       8.12359000       4.76370000      20.13830000      -0.07267600       0.24511300       0.18129000       0.33432100
Cu       0.59573000       4.65833000      20.34080000      -0.04011900       0.03848700       0.20672300      -0.43962600
Cu       3.13607000       4.79823000      20.09640000      -0.09351300      -0.12661800      -0.81095700       0.35902700
Cu       5.57633000       4.69697000      20.22480000      -0.04338200       0.27777200      -0.07156600      -0.07302700
Cu       9.39690000       7.06084000      20.48330000       0.19542300       0.10615700      -0.51810100      -0.22211300
Cu       1.90004000       6.82353000      20.21280000      -0.01628600      -0.70538700       0.48138500      -0.02495600
Cu       4.30368000       6.94827000      20.06220000      -0.05352700       0.43737500      -0.37263400       0.63570700
Cu       6.81116000       6.85983000      20.22140000      -0.01264900       0.09932900       0.21914200       0.24323500
O        6.13548000       5.26556000       4.93579000      -1.31139200      -0.67901500       2.10726800      -0.68735100
O        0.68146000       4.21706000      25.33860000      -1.43193300      -0.19819500      -2.39485900       1.11719100
O        5.81734000       3.54688000      25.43370000      -1.37018900      -1.33089800      -0.79814200       0.00142400
O        8.78313000       0.04546000      27.46900000      -1.30236800      -2.88977700       0.69312300      -0.46057300
O        7.37611000       2.40053000      28.60700000      -1.28653700       0.94617500       1.28309000      -1.39100100
O        4.38376000       1.40743000      24.80150000      -1.37606600       1.47895600      -0.45460300      -1.45907200
O        8.63270000       4.54462000      23.37030000      -1.26533300      -0.95654400       0.40390200       0.08773900
O        1.84817000       8.59361000       1.76802000      -1.26369400       1.04553500       0.30868600       0.08274400
O        1.13482000       2.20698000       3.20198000      -1.33162900      -1.26653400      -0.80056300       1.18053400
O        3.06279000       5.05396000      23.16960000      -1.29977800      -0.44552900      -0.50041700       0.33138400
O        0.68092000       0.50887000      25.48560000      -1.32652000      -0.53928600      -1.10516800       0.94873000
O        7.00364000       0.29376000       7.01425000      -1.32699400       0.91161600       0.40187500      -2.16021900
O        8.02545000       8.76663000      24.11250000      -1.33785700       1.91658300       0.79436500      -0.25801500
O        9.46623000       5.39198000       7.67296000      -1.36034300      -0.37046100       0.00483400      -0.24114500
O        0.92829000       4.92805000       2.87644000      -1.28374300       1.60933900       2.22280800      -0.68574700
O        7.88657000       6.20817000      28.49270000      -1.29550900       1.55849800      -0.69566200       1.59218200
O        0.56937000       7.99339000      29.10460000      -1.29732200       0.26166900       0.41568700      -1.09740800
O        8.08216000       6.92205000       5.82988000      -1.33674700      -0.97761300       0.38372300       1.62813100
O        8.30064000       4.37386000      26.64240000      -1.33873800      -1.19501200       0.68531600       1.44655400
O        9.52259000       5.08322000       0.50103000      -1.34965600      -1.58248700       0.14328000      -2.01767100
O        5.20637000       7.10955000      27.92020000      -1.34085800       0.95444100       0.23768300       0.05405900
O        1.44878000       6.66590000      25.09850000      -1.30378200       0.09476300       2.69751600       0.04388400
O        7.76163000       2.99362000       1.68033000      -1.35049800       1.01397000       0.62739500      -0.40876600
O        4.08912000       4.19451000       6.55127000      -1.32366800      -0.34443100      -0.51633200       0.46865800
O        9.45024000       7.02956000      22.53120000      -1.30923800      -0.26602100      -2.10018200       0.79511500
O        9.87160000       7.40277000       3.73611000      -1.32089400       0.47913200       2.51502400       0.54410800
O        2.29594000       7.82213000       4.80769000      -1.36601000       0.70468400       2.21980300      -1.21466100
O        7.62523000       2.98215000       4.77446000      -1.31038600      -2.24653300      -0.52885900      -1.03635600
O        0.72811000       1.42013000       5.73495000      -1.35166900      -0.48547300       0.13710200      -0.49687200
O        3.72272000       2.36743000       3.30032000      -1.34423100      -0.78669000       0.32556500      -0.10156800
O        6.04702000       8.25044000      25.47170000      -1.35693900      -0.12835900      -1.02389100       0.39544600
O        5.62912000       0.93809000       4.56278000      -1.36455400      -0.53464100       0.42766900       0.76974500
O        5.66844000       5.91382000      23.89880000      -1.35135500      -0.24049600      -1.15716000      -0.39898100
O        4.73439000       2.54342000      28.37030000      -1.34778000      -0.41694300       0.78227000      -1.79824000
O        3.82535000       0.35224000      29.40140000      -1.38266000      -1.01589300       0.67578600       1.17015500
O        8.84313000       2.77442000       7.02180000      -1.42876800       1.90827900       1.19499200       0.87252000
O        0.68379000       8.17712000       7.67290000      -1.30833200      -0.65725200       0.72528400       1.15719600
O        5.81560000       6.88038000       1.03840000      -1.33903800      -0.87044700       2.39595600      -1.02514500
O        8.09131000       8.20796000       1.62247000      -1.31547000      -0.49020400      -1.26748700       0.96149300
O        5.21616000       0.83054000      22.31310000      -1.28328100       0.67854400       0.57031300       0.79156500
O        2.43962000       2.68231000      27.19680000      -1.33674500      -0.97479100       0.50726200       0.12307500
O        3.88645000       4.99176000       2.32690000      -1.31464900       0.66334500      -2.10926900       0.61499300
O        1.63951000       5.72971000       6.12978000      -1.34365200       0.95106400      -0.68975600      -0.05779400
O        0.72618000       2.33901000      23.44140000      -1.34631400       1.44425500       0.84924300       0.94520900
O        2.76122000       6.00539000      27.47040000      -1.32196100       0.24346100      -0.96996000      -0.38482400
O        1.14474000       1.84693000      29.41750000      -1.31319400       0.08946900      -1.53580500      -1.23211300
O        3.02861000       1.10845000       6.83317000      -1.26960300       1.01172300       0.14466300       0.35643300
O        5.00813000       7.38821000       3.63674000      -1.29793200      -1.82509300      -1.26918400       0.13369500
O        5.29971000       1.74090000       1.09715000      -1.29699200      -0.25682200      -1.03084600      -0.23008600
O        2.66253000       5.21874000      30.12624000      -1.23644100       0.75549800      -0.57942100      -0.94113100
H        6.93548000       5.78606000       5.27292000       0.65377400      -1.06599100      -0.24213000      -0.36813900
H        5.52422000       6.03147000       4.48771000       0.62470400       2.03968000      -2.04949000       1.13433300
H        0.95998000       5.11565000      25.23550000       0.72311200      -0.10779100       1.20525500      -0.54474300
H        0.47283000       3.71897000      24.52260000       0.70418100       0.21012900       0.71854100       0.18324500
H        1.93345000       4.93522000       2.89999000       0.62128700      -1.31065400      -0.18782100       0.02524200
H        6.73139000       3.58467000      25.66760000       0.68881700       1.40600800       0.20383700       0.47772200
H        9.23444000       0.17742000      28.28420000       0.68002800       1.05571800      -0.03903100       1.12361900
H        7.89363000       0.47748000      27.70690000       0.63634200       1.67128700      -0.45100100      -0.85411600
H        7.54811000       2.58979000      29.52910000       0.63917600       0.18241900       0.06737900       0.44535100
H        7.85448000       3.14143000      28.08190000       0.64706700      -0.70836400      -1.21193700       0.61534200
H        2.61116000       0.22785000       1.31120000       0.63075500      -0.56404600      -0.33374200      -0.35378300
H        4.85001000       2.22834000      25.04450000       0.72158700       0.32511500       0.61391500       0.19217300
H        7.36207000       8.52261000      24.78810000       0.71189700      -0.25621000      -0.06738100       0.10469800
H        7.66142000       4.71285000      23.32160000       0.63696700       0.66067300      -0.13358700       0.12490300
H        0.12703000       0.77452000      26.26750000       0.66529800       0.67856400       0.00524600      -1.06652800
H        2.31267000       8.16410000       2.50918000       0.64152400      -0.48386600       0.05547000       0.00841600
H        0.75615000       1.84567000       4.11192000       0.66905400       1.16232900       0.57824200      -1.12335700
H        2.46387000       4.30505000      23.32900000       0.62958800       0.07216100       0.32622900       0.37433900
H        3.39093000       4.79168000      22.29530000       0.59785500       0.27454700       0.25063400      -0.54930900
H       10.12610000       5.08216000       1.20587000       0.67071400       1.66337900       0.14381400       2.03993900
H        1.02058000       1.21272000      24.92760000       0.66546500      -0.30008300       0.84518700       0.14611000
H        6.87582000       2.68497000       1.52045000       0.66835700      -0.87739600      -0.64324300       0.15121900
H        6.35203000       0.54200000       6.30877000       0.66080100       0.11719600      -0.08391300       0.47420100
H        6.58697000       0.08138000       7.83224000       0.61082200      -1.14733600      -0.32925900       1.25558300
H        3.61109000       1.34657000      25.29450000       0.66202800      -2.24835700       0.11413400       1.59236100
H        8.80848000       0.31043000      24.61660000       0.60139200      -0.75317500      -0.49556000      -0.38911100
H        8.86380000       6.03226000       7.19820000       0.68453300       0.52281000      -0.43574000       0.01255600
H        9.16732000       4.48579000       7.42108000       0.68997100      -0.11500500       0.07032000       0.20012400
H        8.84357000       4.19638000      22.49060000       0.60186600       0.01250500      -0.20816400      -0.29764300
H        0.65317000       4.06594000       3.10992000       0.66178100      -0.15391400      -1.85581900       0.45956800
H        8.12131000       7.06101000      28.11070000       0.67410200       0.32073800       0.56081300      -0.21635900
H        1.24600000       7.66341000      28.47730000       0.67124900      -0.30666400      -0.12019700       0.80197900
H        0.67603000       7.56130000      29.94340000       0.67034300       0.49887600      -0.49221300       0.62850200
H        7.65610000       7.66915000       6.38876000       0.66388800       0.57967400      -0.61860000      -0.98961200
H        8.71074000       7.31515000       5.22011000       0.67221300       0.49423000       0.21543000      -0.51924900
H        8.16703000       5.19511000      27.26890000       0.65517100       0.48480400      -1.52518000      -1.03018400
H        9.22859000       4.25460000      26.42600000       0.66281600       0.52922200       0.33349300      -0.37163800
H        8.64626000       6.00959000      29.16460000       0.64056500      -1.69668500       0.42682500      -1.24815200
H        8.71873000       4.72780000       0.90512000       0.66628700      -0.06489200      -0.33701100      -0.03665100
H        5.90909000       6.65676000      28.46240000       0.67741400      -1.21223000       0.08319100      -0.76565400
H        4.47054000       6.55163000      27.59230000       0.66562000       0.29255100      -0.31347900       0.77163400
H        1.16568000       1.41273000       2.63735000       0.65824100      -0.06276700      -0.07026400       0.01675800
H        1.25555000       7.69277000      25.17510000       0.66165000      -0.07393200      -2.09098300      -0.03054700
H        1.67986000       6.52973000      24.16920000       0.64804900       0.20612100       0.07290000      -0.08707500
H        7.94029000       2.81744000       2.61000000       0.66342700      -0.07643500       0.04122200       0.30511800
H        4.88321000       4.22359000       6.00802000       0.66227200       0.39186700       0.51533700      -0.41473200
H        8.90584000       7.66781000      23.00070000       0.68513200      -0.58244500       1.12084800       0.36715400
H        0.61019000       7.82995000       3.95646000       0.65392800      -1.12720700      -0.25417300       0.12330400
H        9.09776000       6.17075000      22.99530000       0.64364800       0.90762800       0.90666400      -1.07883300
H        4.43360000       4.25509000       7.46357000       0.61057500      -0.26812000       0.07547500      -0.12879400
H        0.02409000       6.54560000       3.51706000       0.67494100       0.51786800      -2.30613600      -0.53174200
H        2.20825000       6.99840000       5.24774000       0.70317000      -0.51483100      -1.53333100       1.02376800
H        2.61188000       8.46576000       5.47675000       0.66469200      -0.01275500      -0.31726800      -0.38782000
H        7.02256000       3.77765000       4.80800000       0.66278200       0.66635600      -0.01386600      -0.13939200
H        1.61969000       1.36316000       6.18578000       0.68552700      -0.50762800       0.59935100      -0.08807700
H        4.10813000       1.89609000       2.53986000       0.65507000       0.01027000       0.15747700       0.01287000
H        6.90135000       2.29637000       4.55848000       0.64516700       1.40731100       0.35994300       0.50672400
H        2.70381000       2.41195000       3.19983000       0.66647800       1.17553500      -0.33057100       0.31387800
H        5.36636000       0.14858000      25.39100000       0.67985400      -0.38866800       0.53268500      -0.21755800
H        5.79484000       7.65716000      26.19860000       0.67869900       0.03983100       0.18129400       0.49551900
H        4.76946000       1.46503000       4.56341000       0.67951800       1.15450500      -1.13314700      -0.60491700
H        4.76385000       5.82626000      23.55150000       0.65096700       0.21595100      -0.04582800       0.12431700
H        5.46981000       8.77707000       4.24092000       0.68058700      -0.32485900       1.24740700       0.10631600
H        5.74310000       6.80661000      24.21660000       0.68513600       0.18007900       1.01408800       0.38766000
H        2.82076000       5.04185000      27.27510000       0.64229500      -0.12929900       0.54165700       0.20489100
H        4.19346000       2.64806000      27.52060000       0.65947800       0.63435800       0.02027400       1.62814800
H        5.67811000       2.64808000      28.11660000       0.68070100      -0.23815100      -0.26598100       0.44548600
H        4.25973000       8.44438000      28.93000000       0.68574000       0.80940300      -1.26822700      -0.72821300
H        8.42671000       2.83281000       6.16450000       0.73885800      -1.29746200      -0.20128200      -1.26976700
H        1.05900000       7.59460000       7.03383000       0.65855200       0.39887300      -0.94637400      -0.93960400
H        8.40479000       2.12366000       7.55240000       0.66135300      -0.65573800      -0.75411800       0.39816600
H        4.08782000       1.18703000      28.95710000       0.67570600       0.13405400      -0.15914400      -0.08469800
H        0.20617000       0.10631000       7.21173000       0.66478400       0.25416800      -0.19138900      -0.16964800
H        5.63506000       6.03564000       1.34374000       0.66152100      -0.35640100      -2.83492900       0.77560100
H        6.70089000       7.15610000       1.24871000       0.68374200       1.14954700       0.20678300       0.14592100
H        0.18152000       2.14971000       6.09713000       0.66193200       0.37834300      -0.45501400       0.43946400
H        4.43359000       0.89622000      22.89990000       0.66744900       0.57006500       0.10410100      -0.16327200
H        1.74019000       3.10916000      26.65540000       0.64880000       0.32855000      -0.08941400      -0.06147300
H        5.91460000       1.41968000      22.69760000       0.63873500      -0.84689600      -0.75463100      -0.24019100
H        8.60402000       0.07119000       1.20068000       0.64267400       0.69475400       1.74078100      -1.36294700
H        1.99017000       2.48641000      28.06930000       0.67154700       0.34758800      -0.11643700      -0.54867700
H        4.14003000       3.99861000       2.50981000       0.62249800      -0.83310700       2.12641600       0.12097300
H        3.39626000       4.95110000       1.48530000       0.66946100       0.08172300       0.15551800      -0.34549200
H        5.63090000       4.39280000      25.02320000       0.67989200      -0.02257300       0.77104900      -0.44125700
H        2.46475000       5.19845000       6.15271000       0.65909300       0.01450500       0.12676300       0.16521100
H        1.48560000       2.20987000      22.82720000       0.63941200      -1.24745000      -0.47379000      -0.27015700
H        1.04506000       5.22751000       6.69267000       0.67427100      -0.67210600       0.18919600       0.30391600
H       10.08140000       1.82881000      23.28260000       0.67118600      -0.26212300      -0.59445900      -1.12794600
H        2.46088000       6.33622000      26.60970000       0.67627200      -0.26056300       0.19941800      -0.50936400
H        8.73190000       7.92983000       2.29430000       0.67035100      -0.02239600      -0.43874700       0.62155400
H        0.94365000       2.22217000       0.13174000       0.65006300      -0.28508300      -0.12722200       0.72445400
H        1.05815000       0.81799000      29.38090000       0.65472200       0.07972400       1.89908000       0.56742700
H        3.74107000       1.78429000       6.72070000       0.63630300      -0.80439000      -0.36971400       0.21719300
H        3.02346000       0.89394000       7.81092000       0.58024900       0.07319100       0.18207600      -0.70816100
H        4.06548000       7.05338000       3.66697000       0.63708000       1.11446600       0.81493900       0.34232600