246
Lattice="10.140377178 0.0 0.0 0.0 8.78182424 0.0 0.0 0.0 30.131127158" Properties=species:S:1:pos:R:3:initial_charges:R:1:forces:R:3 NELECT0=1456.0 NELECT=1456.0 U_vs_SHE=-0.24738145719447946 stress="0.014706605809935434 -0.0020223113718774344 -0.00024645222934462633 -0.0020223113718774344 0.012876651507808593 0.001629851519551021 -0.00024645222934462633 0.001629851519551021 0.007070150601962897" free_energy=-1811.38147054 energy=-1811.2774094 pbc="T T T"
Cu       7.06311000       1.18155000       9.77517000      -0.03175900      -0.24255100      -0.33797800       0.57604800
Cu       9.60808000       1.25234000       9.96828000      -0.04189700      -0.21837800      -0.19107600       0.25894000
Cu       2.05057000       1.15063000       9.94471000      -0.04285400      -0.28018900      -0.24900500       0.16581400
Cu       4.52008000       1.03082000       9.80435000      -0.07341800      -0.04287400       0.26055200       0.26871100
Cu       8.09069000       3.38275000       9.93975000      -0.01032100       0.77026000      -0.20252800      -0.11313300
Cu       0.75210000       3.37198000       9.88747000      -0.03237200      -0.05961500      -0.46439000      -0.11678700
Cu       3.23754000       3.25060000       9.92574000      -0.05274400       0.02883300       0.32870300      -0.14359100
Cu       5.65708000       3.34284000       9.85379000      -0.04615500       0.21217500      -0.65932700       0.12962300
Cu       9.60589000       5.44893000       9.81066000       0.16210200      -0.31707200       0.36489700      -0.16861600
Cu       2.09672000       5.51333000       9.68967000       0.00221200      -0.55204700      -0.45029500       0.68869800
Cu       4.52652000       5.38766000       9.88701000      -0.05149000      -0.69303000       0.69241400      -0.09802000
Cu       6.87248000       5.55844000       9.92540000      -0.03171600       0.84762500      -0.05195000       0.02027000
Cu       0.65333000       7.69062000       9.79345000       0.16033800       0.17310700       0.26028100       0.03148800
Cu       3.21907000       7.55356000       9.93687000      -0.04648300       0.23710500       0.82956300      -0.00114900
Cu       5.70660000       7.71769000       9.86563000      -0.07215700       0.17976400       0.02927300      -0.00092200
Cu       8.27803000       7.68824000       9.94776000      -0.03270300       0.00539000       0.09808000       0.10389700
Cu       5.73185000       1.81873000      11.92150000       0.01372600       0.46257100      -0.09794800      -0.06434100
Cu       8.17473000       1.76044000      11.96020000       0.01619500       0.58606900       0.35564100      -0.09415300
Cu       0.77036000       1.81832000      11.99100000       0.01933000      -0.30977900       0.40211900      -0.15521100
Cu       3.42739000       1.87361000      11.93370000       0.01946000      -1.35184500      -0.01801900       0.12918300
Cu       6.91291000       3.98052000      11.90440000       0.02208600       0.20941100       0.45202400       0.55362300
Cu       9.57602000       4.03422000      11.83990000       0.02317600      -0.40880100      -0.45618600       0.47382500
Cu       1.89242000       4.06878000      11.87390000       0.02707800       0.58064600      -0.02532900       0.43539400
Cu       4.44295000       4.20626000      12.06870000       0.01256700      -0.02302200      -1.06131500      -0.61831600
Cu       8.30937000       6.11474000      12.01570000       0.01845500      -0.29561400       0.44623200      -0.69495400
Cu       0.67336000       6.19896000      11.94640000       0.04666500       0.05737700       0.28238700      -0.54309900
Cu       3.23474000       6.27290000      12.02880000       0.00621900      -0.83907000      -0.08145000      -0.43936100
Cu       5.64185000       6.31566000      11.87920000       0.02015000       0.73670100      -0.28766800       0.64034500
Cu       9.61647000       8.42990000      11.96950000       0.01829600      -0.62207000      -0.15130900      -0.32239700
Cu       1.85636000       8.43586000      11.91870000       0.00782400       0.72658900      -0.23512000       0.00514900
Cu       4.42591000       8.41035000      11.97990000       0.01956700       0.12802000       0.35451400      -0.18233400
Cu       7.04176000       8.33822000      11.90380000       0.02231600      -0.20427400       0.33466300       0.22506400
Cu       5.70396000       0.36591000      14.03060000       0.03539700       0.09713900      -0.03074100      -0.18045500
Cu       8.23906000       0.36591000      14.03060000       0.00031700       0.00001600      -0.13297100      -0.11502400
Cu       0.63377000       0.36591000      14.03060000      -0.02913200       0.06532400      -0.02857300       0.17061200
Cu       3.16887000       0.36591000      14.03060000       0.00802700      -0.08238600       0.02544400      -0.15245000
Cu       6.97151000       2.56137000      14.03060000      -0.02155200      -0.00280000      -0.00128800      -0.07131400
Cu       9.50660000       2.56137000      14.03060000       0.02949400       0.00560000       0.01185300      -0.24901100
Cu       1.90132000       2.56137000      14.03060000       0.00373900       0.17435800       0.06699700      -0.09068200
Cu       4.43642000       2.56137000      14.03060000       0.00469300       0.16281600       0.03995600       0.10165000
Cu       8.23906000       4.75682000      14.03060000      -0.02450600       0.01011500      -0.23796500      -0.02219100
Cu       0.63377000       4.75682000      14.03060000       0.00501100      -0.01751700      -0.07273600      -0.20019700
Cu       3.16887000       4.75682000      14.03060000       0.00575800      -0.28149500       0.00689400       0.22157600
Cu       5.70396000       4.75682000      14.03060000       0.02761900       0.27594700       0.12239700       0.13270400
Cu       9.50660000       6.95228000      14.03060000       0.00252500       0.05200900      -0.01148100       0.04120300
Cu       1.90132000       6.95228000      14.03060000       0.00432500      -0.08930400       0.03647600      -0.01676800
Cu       4.43642000       6.95228000      14.03060000      -0.01475300       0.15045700       0.01790900       0.22490400
Cu       6.97151000       6.95228000      14.03060000       0.02696600       0.01926400      -0.05463400      -0.14394100
Cu       6.97151000       1.09773000      16.10050000      -0.00007900       0.13823400      -0.18324900      -0.07484000
Cu       9.50660000       1.09773000      16.10050000       0.00440500      -0.09516900      -0.09473000       0.13434400
Cu       1.90132000       1.09773000      16.10050000      -0.02425600      -0.18426800      -0.17728400      -0.31427700
Cu       4.43642000       1.09773000      16.10050000       0.02501000       0.07128100      -0.04072000      -0.09439800
Cu       8.23906000       3.29318000      16.10050000       0.00490900      -0.02430000      -0.07626400      -0.04250400
Cu       0.63377000       3.29318000      16.10050000       0.03716400       0.00707300       0.02366400       0.03687600
Cu       3.16887000       3.29318000      16.10050000      -0.01880200      -0.14159200       0.05367800      -0.17490600
Cu       5.70396000       3.29318000      16.10050000       0.00438500       0.01502600       0.04567700       0.04897500
Cu       9.50660000       5.48864000      16.10050000      -0.02087400      -0.09387300       0.12116300       0.02982400
Cu       1.90132000       5.48864000      16.10050000       0.00660500      -0.34691300      -0.11027500      -0.18710900
Cu       4.43642000       5.48864000      16.10050000       0.00176100       0.01905700       0.04553100      -0.16547800
Cu       6.97151000       5.48864000      16.10050000       0.02753400       0.05940800       0.07407800       0.23465800
Cu       0.63377000       7.68410000      16.10050000       0.00598400      -0.23416000      -0.13304500      -0.11961500
Cu       3.16887000       7.68410000      16.10050000      -0.00041300      -0.02732300       0.10330300      -0.14186300
Cu       5.70396000       7.68410000      16.10050000       0.00684400       0.06435300      -0.00456900       0.18949100
Cu       8.23906000       7.68410000      16.10050000      -0.00444400      -0.10006500       0.12963400       0.24565600
Cu       5.79066000       1.76627000      18.11800000       0.01800400      -0.97711400       0.23490700       0.46475900
Cu       8.18851000       1.79913000      18.20540000       0.01761400       0.32203700      -0.38592200      -0.48183600
Cu       0.62956000       1.76913000      18.16870000       0.01313700      -0.27308600       0.09149800      -0.06953600
Cu       3.07685000       1.75526000      18.05440000       0.01130900       0.49331100       0.05168100       0.81355400
Cu       7.02288000       3.97547000      18.17900000       0.02375200      -0.68124300       0.22244400      -0.24876700
Cu       9.47027000       4.04620000      18.13950000       0.01183500       0.08309500      -0.01665400      -0.24728400
Cu       1.84058000       3.99057000      18.21820000       0.03234100      -0.17357700      -0.31621700      -0.17582200
Cu       4.34436000       4.01871000      18.12080000       0.01992100       0.43063300      -0.47835700      -0.00505500
Cu       8.21965000       6.36530000      18.24950000       0.01145600      -0.19651000      -0.77445100      -0.16692900
Cu       0.51422000       6.12864000      18.24310000       0.02593600       0.14779200       0.32561800       0.18966300
Cu       3.03580000       6.16418000      18.06610000       0.01812300       0.39349900       0.17553300       0.24319800
Cu       5.63708000       6.11203000      18.19720000       0.02694100       0.22980700       0.21515200      -0.43073400
Cu       9.48666000       8.37643000      18.24110000       0.01747700      -0.27469100       0.28253800       0.08259200
Cu       1.76015000       8.26513000      18.13300000       0.02067400       0.47438400       0.53144600       0.35161800
Cu       4.36910000       8.34885000      18.17600000       0.02264100       0.08699100       0.49397200      -0.34852000
Cu       6.83239000       8.37448000      18.33280000       0.02687600       0.30009600       0.13127000      -0.48416900
Cu       5.61320000       0.35874000      20.36780000       0.18996700      -0.14656700      -0.17259900      -0.41952400
Cu       8.13775000       0.39304000      20.28980000      -0.02420100       0.14040200       0.06271000      -0.25378100
Cu       0.54914000       0.42030000      20.29810000      -0.02440300      -0.07251200      -0.33010200      -0.29463600
Cu       3.04466000       0.23739000      20.14640000      -0.06091200      -0.13627300       0.41893300      -0.07561800
Cu       6.93722000       2.55155000      20.26460000      -0.04005800      -0.15998200       0.17114500      -0.26424000
Cu       9.39103000       2.67833000      20.04150000      -0.07855300       0.39661000      -0.78893400       1.02000500
Cu       1.86453000       2.38845000      20.28840000      -0.10406900       0.18454800       0.80978200      -0.36164100
Cu       4.39293000       2.52422000      20.09240000      -0.02233500      -0.34993600       0.00086900      -0.03272700
Cu       8.12359000       4.76370000      20.13830000      -0.06738400       0.24364100       0.18239900       0.33294300
Cu       0.59573000       4.65833000      20.34080000      -0.03266100       0.03934900       0.20837200      -0.43855500
Cu       3.13607000       4.79823000      20.09640000      -0.08823000      -0.12812100      -0.81055500       0.35301100
Cu       5.57633000       4.69697000      20.22480000      -0.03707000       0.27925200      -0.07044300      -0.07677400
Cu       9.39690000       7.06084000      20.48330000       0.19960700       0.10365700      -0.51789300      -0.17051500
Cu       1.90004000       6.82353000      20.21280000      -0.01032900      -0.70388500       0.48190800      -0.02216800
Cu       4.30368000       6.94827000      20.06220000      -0.04823300       0.43751800      -0.37324400       0.63327400
Cu       6.81116000       6.85983000      20.22140000      -0.00632900       0.10093400       0.21779400       0.24942900
O        6.13548000       5.26556000       4.93579000      -1.31086500      -0.67115300       2.09488700      -0.62785100
O        0.68146000       4.21706000      25.33860000      -1.42975200      -0.19685900      -2.41082400       1.04955400
O        5.81734000       3.54688000      25.43370000      -1.36915600      -1.34202900      -0.79650200      -0.05518600
O        8.78313000       0.04546000      27.46900000      -1.30316300      -2.88404700       0.69788000      -0.48967300
O        7.37611000       2.40053000      28.60700000      -1.28536500       0.94787300       1.28719800      -1.41022400
O        4.38376000       1.40743000      24.80150000      -1.37707700       1.46653000      -0.45549100      -1.52565300
O        8.63270000       4.54462000      23.37030000      -1.25911300      -0.94510400       0.41003300       0.01801000
O        1.84817000       8.59361000       1.76802000      -1.26292200       1.03897100       0.31294100       0.10432200
O        1.13482000       2.20698000       3.20198000      -1.32993700      -1.27737000      -0.80653100       1.24358800
O        3.06279000       5.05396000      23.16960000      -1.29338600      -0.44503000      -0.51462100       0.24011100
O        0.68092000       0.50887000      25.48560000      -1.32595500      -0.53596500      -1.09227400       0.87811200
O        7.00364000       0.29376000       7.01425000      -1.32297500       0.91116300       0.41157900      -2.04053300
O        8.02545000       8.76663000      24.11250000      -1.34092200       1.94560300       0.79202900      -0.33245800
O        9.46623000       5.39198000       7.67296000      -1.35914500      -0.36600800      -0.00394300      -0.14078500
O        0.92829000       4.92805000       2.87644000      -1.28359300       1.60701600       2.22757500      -0.65293000
O        7.88657000       6.20817000      28.49270000      -1.29511900       1.55733200      -0.70344100       1.56841700
O        0.56937000       7.99339000      29.10460000      -1.29682100       0.25772000       0.41920300      -1.10669400
O        8.08216000       6.92205000       5.82988000      -1.33627700      -0.98120100       0.38992800       1.71833200
O        8.30064000       4.37386000      26.64240000      -1.33918100      -1.18637200       0.67784600       1.39162700
O        9.52259000       5.08322000       0.50103000      -1.34864100      -1.58061800       0.14429400      -2.01219600
O        5.20637000       7.10955000      27.92020000      -1.34057100       0.95585300       0.24088100       0.01871500
O        1.44878000       6.66590000      25.09850000      -1.30128300       0.08764300       2.68844500      -0.00962500
O        7.76163000       2.99362000       1.68033000      -1.34923900       1.01710100       0.62957900      -0.38600200
O        4.08912000       4.19451000       6.55127000      -1.32070400      -0.35299000      -0.52321200       0.55647900
O        9.45024000       7.02956000      22.53120000      -1.30719200      -0.25515200      -2.10462000       0.69273100
O        9.87160000       7.40277000       3.73611000      -1.32090600       0.47896800       2.51968000       0.59791900
O        2.29594000       7.82213000       4.80769000      -1.36281200       0.70246900       2.22192900      -1.15427900
O        7.62523000       2.98215000       4.77446000      -1.31017300      -2.23059700      -0.52967200      -0.96338000
O        0.72811000       1.42013000       5.73495000      -1.34347500      -0.47699400       0.11750800      -0.40087200
O        3.72272000       2.36743000       3.30032000      -1.34925200      -0.78804000       0.31678500      -0.06071700
O        6.04702000       8.25044000      25.47170000      -1.35761400      -0.12019600      -1.01611000       0.33075200
O        5.62912000       0.93809000       4.56278000      -1.36486500      -0.51699300       0.42904700       0.83863000
O        5.66844000       5.91382000      23.89880000      -1.35072800      -0.24319900      -1.16362100      -0.47287300
O        4.73439000       2.54342000      28.37030000      -1.34669000      -0.42070800       0.78386000      -1.81667900
O        3.82535000       0.35224000      29.40140000      -1.38201100      -1.01625200       0.67746500       1.16473600
O        8.84313000       2.77442000       7.02180000      -1.42739100       1.91165000       1.19410800       0.99004400
O        0.68379000       8.17712000       7.67290000      -1.30964500      -0.65540700       0.71890300       1.24102500
O        5.81560000       6.88038000       1.03840000      -1.33839900      -0.87894700       2.40119700      -1.00383200
O        8.09131000       8.20796000       1.62247000      -1.31470900      -0.48809100      -1.26999300       0.98120600
O        5.21616000       0.83054000      22.31310000      -1.28286900       0.69388400       0.58131400       0.70360500
O        2.43962000       2.68231000      27.19680000      -1.33654700      -0.97864000       0.50951600       0.07741800
O        3.88645000       4.99176000       2.32690000      -1.31463600       0.66408400      -2.11306400       0.64393700
O        1.63951000       5.72971000       6.12978000      -1.34073500       0.93929000      -0.69261100       0.01842000
O        0.72618000       2.33901000      23.44140000      -1.34188300       1.46535500       0.85175200       0.83542500
O        2.76122000       6.00539000      27.47040000      -1.31912700       0.23729900      -0.96364600      -0.41593300
O        1.14474000       1.84693000      29.41750000      -1.31312200       0.09435100      -1.53450000      -1.24453100
O        3.02861000       1.10845000       6.83317000      -1.26440300       1.03305900       0.14366900       0.46893600
O        5.00813000       7.38821000       3.63674000      -1.29851100      -1.82240600      -1.26985000       0.18496800
O        5.29971000       1.74090000       1.09715000      -1.29690500      -0.26145900      -1.02966600      -0.21614900
O        2.66253000       5.21874000      30.12624000      -1.23607600       0.75931800      -0.57746500      -0.93769500
H        6.93548000       5.78606000       5.27292000       0.65327500      -1.08194800      -0.25756100      -0.39279300
H        5.52422000       6.03147000       4.48771000       0.62557800       2.02435900      -2.02549000       1.10121100
H        0.95998000       5.11565000      25.23550000       0.72315500      -0.10737400       1.20971400      -0.52971400
H        0.47283000       3.71897000      24.52260000       0.70277100       0.21151000       0.74881100       0.23040300
H        1.93345000       4.93522000       2.89999000       0.62139000      -1.30398100      -0.18851500       0.01088700
H        6.73139000       3.58467000      25.66760000       0.68934500       1.41791300       0.20627800       0.50580900
H        9.23444000       0.17742000      28.28420000       0.68078800       1.06089000      -0.04128000       1.13167800
H        7.89363000       0.47748000      27.70690000       0.63670200       1.67011400      -0.44691400      -0.84290500
H        7.54811000       2.58979000      29.52910000       0.63968500       0.18316300       0.06747300       0.44662700
H        7.85448000       3.14143000      28.08190000       0.64640100      -0.71324600      -1.22279800       0.63609900
H        2.61116000       0.22785000       1.31120000       0.63148300      -0.56093200      -0.33353400      -0.36171100
H        4.85001000       2.22834000      25.04450000       0.72207700       0.33494000       0.62537800       0.21421900
H        7.36207000       8.52261000      24.78810000       0.71334300      -0.29416900      -0.07880900       0.14232800
H        7.66142000       4.71285000      23.32160000       0.63778700       0.64963300      -0.13122400       0.15721400
H        0.12703000       0.77452000      26.26750000       0.66766800       0.66682300       0.00365000      -1.03398700
H        2.31267000       8.16410000       2.50918000       0.64086400      -0.48138100       0.05523500      -0.01159100
H        0.75615000       1.84567000       4.11192000       0.66798300       1.17060200       0.59464400      -1.20676700
H        2.46387000       4.30505000      23.32900000       0.63074400       0.06999400       0.33163200       0.40881400
H        3.39093000       4.79168000      22.29530000       0.59543800       0.27344200       0.25350300      -0.49750400
H       10.12610000       5.08216000       1.20587000       0.67022600       1.65899000       0.14455600       2.02732700
H        1.02058000       1.21272000      24.92760000       0.66438000      -0.29837200       0.81992700       0.20029400
H        6.87582000       2.68497000       1.52045000       0.66847400      -0.88177100      -0.64557100       0.14489500
H        6.35203000       0.54200000       6.30877000       0.66294200       0.09406500      -0.07051400       0.41013900
H        6.58697000       0.08138000       7.83224000       0.60776000      -1.13972700      -0.32954000       1.20014100
H        3.61109000       1.34657000      25.29450000       0.66385200      -2.24763700       0.11114300       1.61416700
H        8.80848000       0.31043000      24.61660000       0.60409700      -0.74765700      -0.49519000      -0.36780900
H        8.86380000       6.03226000       7.19820000       0.68584400       0.50385800      -0.40385300      -0.03980900
H        9.16732000       4.48579000       7.42108000       0.69097300      -0.11532800       0.05444300       0.17438100
H        8.84357000       4.19638000      22.49060000       0.59873500       0.00989400      -0.20475700      -0.25656500
H        0.65317000       4.06594000       3.10992000       0.66163300      -0.15559500      -1.85497500       0.44521200
H        8.12131000       7.06101000      28.11070000       0.67398600       0.32049500       0.55829600      -0.20727400
H        1.24600000       7.66341000      28.47730000       0.67090700      -0.30586900      -0.11951600       0.81194700
H        0.67603000       7.56130000      29.94340000       0.67057500       0.49809700      -0.49460200       0.62848100
H        7.65610000       7.66915000       6.38876000       0.66306100       0.59610800      -0.65010600      -1.03312600
H        8.71074000       7.31515000       5.22011000       0.67413300       0.51750200       0.22046900      -0.56288600
H        8.16703000       5.19511000      27.26890000       0.65604900       0.47864200      -1.50528800      -1.00056100
H        9.22859000       4.25460000      26.42600000       0.66228300       0.51257500       0.33270400      -0.34488200
H        8.64626000       6.00959000      29.16460000       0.64109900      -1.69304700       0.42505700      -1.24103500
H        8.71873000       4.72780000       0.90512000       0.66636000      -0.06578700      -0.33633800      -0.04015600
H        5.90909000       6.65676000      28.46240000       0.67801600      -1.20700300       0.08161300      -0.75828400
H        4.47054000       6.55163000      27.59230000       0.66551000       0.29399900      -0.31238100       0.78402200
H        1.16568000       1.41273000       2.63735000       0.65895500      -0.06243100      -0.08032400       0.00217000
H        1.25555000       7.69277000      25.17510000       0.66199500      -0.07407000      -2.08108500      -0.01055300
H        1.67986000       6.52973000      24.16920000       0.64570400       0.20050400       0.08120500      -0.05588500
H        7.94029000       2.81744000       2.61000000       0.66249100      -0.07433800       0.03836900       0.27828700
H        4.88321000       4.22359000       6.00802000       0.66483200       0.41315000       0.52505800      -0.45158000
H        8.90584000       7.66781000      23.00070000       0.68638700      -0.60447700       1.15108600       0.41570800
H        0.61019000       7.82995000       3.95646000       0.65378700      -1.13950900      -0.25597700       0.09870300
H        9.09776000       6.17075000      22.99530000       0.64535700       0.90423000       0.88676800      -1.05244100
H        4.43360000       4.25509000       7.46357000       0.60834500      -0.26819300       0.07664400      -0.18227100
H        0.02409000       6.54560000       3.51706000       0.67578300       0.51986900      -2.31516000      -0.55061400
H        2.20825000       6.99840000       5.24774000       0.70245300      -0.50329700      -1.51166500       0.99211900
H        2.61188000       8.46576000       5.47675000       0.66297800      -0.01533100      -0.33755800      -0.42335600
H        7.02256000       3.77765000       4.80800000       0.66305600       0.66730700      -0.01197800      -0.15593100
H        1.61969000       1.36316000       6.18578000       0.68425400      -0.54764000       0.60775400      -0.12590500
H        4.10813000       1.89609000       2.53986000       0.66015700       0.01940000       0.15616800      -0.00639500
H        6.90135000       2.29637000       4.55848000       0.64597300       1.40628900       0.35618900       0.48820600
H        2.70381000       2.41195000       3.19983000       0.66672200       1.17956300      -0.32906200       0.30493700
H        5.36636000       0.14858000      25.39100000       0.67997600      -0.37722800       0.52241800      -0.19578600
H        5.79484000       7.65716000      26.19860000       0.68035400       0.03818400       0.16937100       0.53694900
H        4.76946000       1.46503000       4.56341000       0.67914100       1.14180500      -1.12082000      -0.63415100
H        4.76385000       5.82626000      23.55150000       0.65026400       0.22568200      -0.04045200       0.15702200
H        5.46981000       8.77707000       4.24092000       0.68224300      -0.32959000       1.22313000       0.07968200
H        5.74310000       6.80661000      24.21660000       0.68612400       0.18291300       1.03220900       0.42171400
H        2.82076000       5.04185000      27.27510000       0.64222800      -0.12757300       0.53849500       0.21702500
H        4.19346000       2.64806000      27.52060000       0.65896000       0.63886800       0.02047400       1.64369400
H        5.67811000       2.64808000      28.11660000       0.68054700      -0.23285000      -0.26578700       0.45493500
H        4.25973000       8.44438000      28.93000000       0.68565200       0.80810400      -1.26560700      -0.72139200
H        8.42671000       2.83281000       6.16450000       0.74034600      -1.33214600      -0.19420600      -1.35171700
H        1.05900000       7.59460000       7.03383000       0.66117600       0.40452200      -0.95571800      -0.96531900
H        8.40479000       2.12366000       7.55240000       0.66010600      -0.65247100      -0.74892100       0.35241300
H        4.08782000       1.18703000      28.95710000       0.67557800       0.13216000      -0.16375900      -0.07841100
H        0.20617000       0.10631000       7.21173000       0.66667600       0.25568800      -0.17500300      -0.20532100
H        5.63506000       6.03564000       1.34374000       0.66161700      -0.35427100      -2.83950300       0.76655700
H        6.70089000       7.15610000       1.24871000       0.68381800       1.15292100       0.20652500       0.14027000
H        0.18152000       2.14971000       6.09713000       0.65636900       0.39834900      -0.46003900       0.40740800
H        4.43359000       0.89622000      22.89990000       0.66980500       0.56970500       0.10668800      -0.10772700
H        1.74019000       3.10916000      26.65540000       0.64798300       0.33714500      -0.09683000      -0.03245700
H        5.91460000       1.41968000      22.69760000       0.64165900      -0.85397500      -0.76755500      -0.20914300
H        8.60402000       0.07119000       1.20068000       0.64318700       0.69520800       1.74237900      -1.36781700
H        1.99017000       2.48641000      28.06930000       0.67266400       0.33941500      -0.12345500      -0.52413500
H        4.14003000       3.99861000       2.50981000       0.62254200      -0.83152400       2.13561800       0.10703800
H        3.39626000       4.95110000       1.48530000       0.67011200       0.07649100       0.15846500      -0.36098100
H        5.63090000       4.39280000      25.02320000       0.67914000      -0.02041600       0.75367900      -0.40712100
H        2.46475000       5.19845000       6.15271000       0.65927900       0.00856600       0.12782300       0.13715500
H        1.48560000       2.20987000      22.82720000       0.63905800      -1.27239600      -0.47616000      -0.20866500
H        1.04506000       5.22751000       6.69267000       0.67325400      -0.65913900       0.18402800       0.26543400
H       10.08140000       1.82881000      23.28260000       0.67213400      -0.25757200      -0.60059100      -1.09291400
H        2.46088000       6.33622000      26.60970000       0.67411400      -0.24842200       0.19382400      -0.47188100
H        8.73190000       7.92983000       2.29430000       0.66965100      -0.03101800      -0.43499700       0.59916900
H        0.94365000       2.22217000       0.13174000       0.65028000      -0.28600600      -0.12357700       0.72099900
H        1.05815000       0.81799000      29.38090000       0.65493900       0.08058900       1.89824200       0.56898600
H        3.74107000       1.78429000       6.72070000       0.63728100      -0.80126000      -0.36866000       0.18727700
H        3.02346000       0.89394000       7.81092000       0.57796100       0.06978200       0.19061800      -0.78123700
H        4.06548000       7.05338000       3.66697000       0.63754800       1.11904100       0.81255600       0.32284600
H        5.26506000       7.09302000       2.74511000       0.68938500       0.41039800       0.36289300      -0.59220500