246
Lattice="10.140377178 0.0 0.0 0.0 8.78182424 0.0 0.0 0.0 30.131127158" Properties=species:S:1:pos:R:3:initial_charges:R:1:forces:R:3 NELECT0=1456.0 NELECT=1457.0 U_vs_SHE=-1.5359587847090457 stress="0.012331449444153568 -0.0020383520503309545 -0.00016850826338059622 -0.0020383520503309545 0.009958178014127718 0.001472078651866944 -0.00016850826338059622 0.001472078651866944 0.0038861695515760705" free_energy=-1808.3718907 energy=-1810.484056935291 pbc="T T T"
Cu       7.06311000       1.18155000       9.77517000      -0.04808200      -0.24330000      -0.33719000       0.59253300
Cu       9.60808000       1.25234000       9.96828000      -0.05868900      -0.22203600      -0.18882600       0.25768200
Cu       2.05057000       1.15063000       9.94471000      -0.05893600      -0.27018200      -0.25064100       0.16376900
Cu       4.52008000       1.03082000       9.80435000      -0.09208800      -0.04763600       0.25434200       0.24775200
Cu       8.09069000       3.38275000       9.93975000      -0.02550800       0.76206500      -0.20771200      -0.09154200
Cu       0.75210000       3.37198000       9.88747000      -0.04888700      -0.05788500      -0.46799700      -0.11605500
Cu       3.23754000       3.25060000       9.92574000      -0.06599100       0.03315900       0.33029600      -0.16576000
Cu       5.65708000       3.34284000       9.85379000      -0.06420200       0.21254200      -0.65359500       0.10188600
Cu       9.60589000       5.44893000       9.81066000       0.15191900      -0.30472900       0.36673200      -0.05292000
Cu       2.09672000       5.51333000       9.68967000      -0.01839100      -0.54288100      -0.45096100       0.69786800
Cu       4.52652000       5.38766000       9.88701000      -0.06846400      -0.69359300       0.69026100      -0.12370900
Cu       6.87248000       5.55844000       9.92540000      -0.04893200       0.84245200      -0.05464700       0.01237800
Cu       0.65333000       7.69062000       9.79345000       0.14912200       0.17329300       0.24199600       0.14630500
Cu       3.21907000       7.55356000       9.93687000      -0.06228000       0.24021600       0.82870400      -0.01101200
Cu       5.70660000       7.71769000       9.86563000      -0.08974200       0.18219900       0.02995000      -0.01968000
Cu       8.27803000       7.68824000       9.94776000      -0.04870700       0.00014600       0.09775500       0.10750000
Cu       5.73185000       1.81873000      11.92150000       0.00842800       0.46124200      -0.10126000      -0.06338300
Cu       8.17473000       1.76044000      11.96020000       0.01099800       0.58512900       0.35128300      -0.08732300
Cu       0.77036000       1.81832000      11.99100000       0.01451100      -0.31144100       0.39687900      -0.14981300
Cu       3.42739000       1.87361000      11.93370000       0.01440500      -1.35106900      -0.01869300       0.13047200
Cu       6.91291000       3.98052000      11.90440000       0.01707500       0.20728300       0.44920900       0.55897700
Cu       9.57602000       4.03422000      11.83990000       0.01945500      -0.41094000      -0.46210600       0.47749300
Cu       1.89242000       4.06878000      11.87390000       0.02260300       0.58533900      -0.02888300       0.44085100
Cu       4.44295000       4.20626000      12.06870000       0.00862400      -0.02309700      -1.06508400      -0.62076800
Cu       8.30937000       6.11474000      12.01570000       0.01417900      -0.30275700       0.44228200      -0.69767100
Cu       0.67336000       6.19896000      11.94640000       0.04276400       0.05994300       0.27842300      -0.54289600
Cu       3.23474000       6.27290000      12.02880000       0.00138200      -0.83493400      -0.08451600      -0.43649000
Cu       5.64185000       6.31566000      11.87920000       0.01507100       0.73560900      -0.28671700       0.65208500
Cu       9.61647000       8.42990000      11.96950000       0.01389900      -0.62496600      -0.15138700      -0.32251400
Cu       1.85636000       8.43586000      11.91870000       0.00397300       0.73352200      -0.23728600       0.00518800
Cu       4.42591000       8.41035000      11.97990000       0.01439700       0.13151200       0.35037700      -0.17531900
Cu       7.04176000       8.33822000      11.90380000       0.01757100      -0.21248700       0.33203000       0.23581800
Cu       5.70396000       0.36591000      14.03060000       0.03069100       0.09707800      -0.03117900      -0.17173500
Cu       8.23906000       0.36591000      14.03060000      -0.00469900       0.00477800      -0.13210800      -0.10793900
Cu       0.63377000       0.36591000      14.03060000      -0.03376100       0.06361800      -0.03059300       0.17195500
Cu       3.16887000       0.36591000      14.03060000       0.00373700      -0.08405100       0.02769100      -0.14709000
Cu       6.97151000       2.56137000      14.03060000      -0.02622400      -0.00274300       0.00073100      -0.06839000
Cu       9.50660000       2.56137000      14.03060000       0.02473100       0.00576900       0.01021300      -0.24867200
Cu       1.90132000       2.56137000      14.03060000      -0.00097700       0.17498600       0.07154500      -0.09078000
Cu       4.43642000       2.56137000      14.03060000       0.00075200       0.16421500       0.03974400       0.11101700
Cu       8.23906000       4.75682000      14.03060000      -0.02915400       0.01169600      -0.23338400      -0.02044400
Cu       0.63377000       4.75682000      14.03060000      -0.00006400      -0.01658900      -0.07016900      -0.20071800
Cu       3.16887000       4.75682000      14.03060000       0.00121000      -0.28801700       0.01281200       0.22757200
Cu       5.70396000       4.75682000      14.03060000       0.02386800       0.27884600       0.12699400       0.14142300
Cu       9.50660000       6.95228000      14.03060000      -0.00233300       0.05082600      -0.00955400       0.04549100
Cu       1.90132000       6.95228000      14.03060000      -0.00034300      -0.09026500       0.03926300      -0.01611200
Cu       4.43642000       6.95228000      14.03060000      -0.01765100       0.15532200       0.02140100       0.23490200
Cu       6.97151000       6.95228000      14.03060000       0.02149300       0.01960200      -0.05173600      -0.13895200
Cu       6.97151000       1.09773000      16.10050000      -0.00460600       0.13814400      -0.18519200      -0.07776100
Cu       9.50660000       1.09773000      16.10050000      -0.00028900      -0.09665600      -0.09874000       0.12958900
Cu       1.90132000       1.09773000      16.10050000      -0.02836800      -0.18670300      -0.18074400      -0.32009900
Cu       4.43642000       1.09773000      16.10050000       0.02041700       0.07289500      -0.04313400      -0.09701300
Cu       8.23906000       3.29318000      16.10050000       0.00109100      -0.02251600      -0.07814000      -0.05006500
Cu       0.63377000       3.29318000      16.10050000       0.03228500       0.00637200       0.02312900       0.02707300
Cu       3.16887000       3.29318000      16.10050000      -0.02338300      -0.14368400       0.05393300      -0.18162000
Cu       5.70396000       3.29318000      16.10050000      -0.00005200       0.01620300       0.04337400       0.04602400
Cu       9.50660000       5.48864000      16.10050000      -0.02548100      -0.09098000       0.11837300       0.03048800
Cu       1.90132000       5.48864000      16.10050000       0.00202100      -0.35026900      -0.11312900      -0.19087900
Cu       4.43642000       5.48864000      16.10050000      -0.00462900       0.01757100       0.03980400      -0.16907100
Cu       6.97151000       5.48864000      16.10050000       0.02275800       0.06002400       0.07560700       0.23286300
Cu       0.63377000       7.68410000      16.10050000       0.00077200      -0.23464100      -0.13792100      -0.12881500
Cu       3.16887000       7.68410000      16.10050000      -0.00459600      -0.03226700       0.10235600      -0.14856700
Cu       5.70396000       7.68410000      16.10050000       0.00201600       0.07007600      -0.00787900       0.19012500
Cu       8.23906000       7.68410000      16.10050000      -0.00892800      -0.09980800       0.13016400       0.24410100
Cu       5.79066000       1.76627000      18.11800000       0.01413100      -0.97716500       0.24239800       0.47369500
Cu       8.18851000       1.79913000      18.20540000       0.01235800       0.32338500      -0.38078500      -0.49175900
Cu       0.62956000       1.76913000      18.16870000       0.00826700      -0.27297000       0.10032500      -0.07676600
Cu       3.07685000       1.75526000      18.05440000       0.00640100       0.49108500       0.05680500       0.81512600
Cu       7.02288000       3.97547000      18.17900000       0.01887800      -0.68162300       0.22478700      -0.25462100
Cu       9.47027000       4.04620000      18.13950000       0.00711000       0.08466600      -0.01672000      -0.25012000
Cu       1.84058000       3.99057000      18.21820000       0.02765500      -0.17490100      -0.31721200      -0.18165300
Cu       4.34436000       4.01871000      18.12080000       0.01547900       0.42935100      -0.47528600      -0.00824300
Cu       8.21965000       6.36530000      18.24950000       0.00713700      -0.19546600      -0.77162100      -0.17214500
Cu       0.51422000       6.12864000      18.24310000       0.02145100       0.14872200       0.32988900       0.18944500
Cu       3.03580000       6.16418000      18.06610000       0.01395400       0.39458600       0.17865700       0.23853700
Cu       5.63708000       6.11203000      18.19720000       0.02212100       0.22987200       0.21665400      -0.43380100
Cu       9.48666000       8.37643000      18.24110000       0.01309900      -0.27244200       0.28576400       0.07928000
Cu       1.76015000       8.26513000      18.13300000       0.01581800       0.47057000       0.53565500       0.34953200
Cu       4.36910000       8.34885000      18.17600000       0.01866300       0.08420900       0.49538100      -0.34621400
Cu       6.83239000       8.37448000      18.33280000       0.02286700       0.30535800       0.13389600      -0.49172700
Cu       5.61320000       0.35874000      20.36780000       0.17901700      -0.12328300      -0.19218800      -0.51817900
Cu       8.13775000       0.39304000      20.28980000      -0.04117800       0.13803900       0.06975600      -0.25437500
Cu       0.54914000       0.42030000      20.29810000      -0.04130900      -0.06942900      -0.32118500      -0.28409900
Cu       3.04466000       0.23739000      20.14640000      -0.07723800      -0.14341600       0.41850600      -0.06124700
Cu       6.93722000       2.55155000      20.26460000      -0.05806500      -0.15629900       0.17343700      -0.24389300
Cu       9.39103000       2.67833000      20.04150000      -0.09245400       0.39861900      -0.78422100       1.04821500
Cu       1.86453000       2.38845000      20.28840000      -0.12537700       0.18822300       0.80984300      -0.31152400
Cu       4.39293000       2.52422000      20.09240000      -0.03423300      -0.35567100       0.01498300      -0.03598400
Cu       8.12359000       4.76370000      20.13830000      -0.08198500       0.24718800       0.17951900       0.33914500
Cu       0.59573000       4.65833000      20.34080000      -0.05148300       0.03758300       0.20462500      -0.43844200
Cu       3.13607000       4.79823000      20.09640000      -0.10233800      -0.12550500      -0.81152100       0.37220600
Cu       5.57633000       4.69697000      20.22480000      -0.05324900       0.27593900      -0.07327900      -0.06241700
Cu       9.39690000       7.06084000      20.48330000       0.18995800       0.10899000      -0.51824000      -0.30596400
Cu       1.90004000       6.82353000      20.21280000      -0.02562600      -0.70643400       0.48055900      -0.02633900
Cu       4.30368000       6.94827000      20.06220000      -0.06198500       0.43543100      -0.37146400       0.64393100
Cu       6.81116000       6.85983000      20.22140000      -0.02199900       0.09764600       0.22115600       0.23704000
O        6.13548000       5.26556000       4.93579000      -1.31250100      -0.69076100       2.12602800      -0.78245500
O        0.68146000       4.21706000      25.33860000      -1.43600200      -0.20134100      -2.36825700       1.22843900
O        5.81734000       3.54688000      25.43370000      -1.37177400      -1.31299300      -0.80104600       0.09260200
O        8.78313000       0.04546000      27.46900000      -1.29987600      -2.89958900       0.68485300      -0.41417400
O        7.37611000       2.40053000      28.60700000      -1.28922200       0.94306700       1.27614500      -1.35956200
O        4.38376000       1.40743000      24.80150000      -1.37472300       1.50275000      -0.45442900      -1.35351900
O        8.63270000       4.54462000      23.37030000      -1.27490200      -0.97282400       0.39674200       0.20333000
O        1.84817000       8.59361000       1.76802000      -1.26608100       1.05547000       0.30199000       0.04847200
O        1.13482000       2.20698000       3.20198000      -1.33398300      -1.24866500      -0.78994800       1.07923100
O        3.06279000       5.05396000      23.16960000      -1.31004700      -0.44502600      -0.47024500       0.48109800
O        0.68092000       0.50887000      25.48560000      -1.32757000      -0.54557600      -1.12872900       1.06260400
O        7.00364000       0.29376000       7.01425000      -1.33203700       0.92046800       0.38652800      -2.35142300
O        8.02545000       8.76663000      24.11250000      -1.33254200       1.87000800       0.79660500      -0.14270000
O        9.46623000       5.39198000       7.67296000      -1.36239000      -0.37506900       0.01766200      -0.39584300
O        0.92829000       4.92805000       2.87644000      -1.28438100       1.61271900       2.21544800      -0.73756700
O        7.88657000       6.20817000      28.49270000      -1.29615600       1.56004800      -0.68331700       1.63091200
O        0.56937000       7.99339000      29.10460000      -1.29746600       0.26768900       0.41021400      -1.08179500
O        8.08216000       6.92205000       5.82988000      -1.33816000      -0.97144400       0.37126300       1.48500400
O        8.30064000       4.37386000      26.64240000      -1.33840900      -1.20995900       0.69709200       1.53449800
O        9.52259000       5.08322000       0.50103000      -1.35148100      -1.58556900       0.14164900      -2.02578800
O        5.20637000       7.10955000      27.92020000      -1.34160600       0.95257600       0.23302900       0.11140400
O        1.44878000       6.66590000      25.09850000      -1.30796900       0.10472100       2.71082700       0.13293800
O        7.76163000       2.99362000       1.68033000      -1.35343800       1.00890200       0.62404100      -0.44526200
O        4.08912000       4.19451000       6.55127000      -1.32867100      -0.33698200      -0.50496900       0.32288900
O        9.45024000       7.02956000      22.53120000      -1.30265100      -0.27925200      -2.09257200       0.95059900
O        9.87160000       7.40277000       3.73611000      -1.32193000       0.47840700       2.50782600       0.45888700
O        2.29594000       7.82213000       4.80769000      -1.37075900       0.70662000       2.21555100      -1.31293900
O        7.62523000       2.98215000       4.77446000      -1.31093600      -2.26985000      -0.52761000      -1.15196100
O        0.72811000       1.42013000       5.73495000      -1.35625400      -0.50111100       0.16671100      -0.65003300
O        3.72272000       2.36743000       3.30032000      -1.34322600      -0.78434900       0.33992300      -0.16590000
O        6.04702000       8.25044000      25.47170000      -1.35673500      -0.13952000      -1.03628700       0.49780400
O        5.62912000       0.93809000       4.56278000      -1.36482600      -0.56106800       0.42546600       0.65931100
O        5.66844000       5.91382000      23.89880000      -1.35417800      -0.23353700      -1.14788000      -0.28217500
O        4.73439000       2.54342000      28.37030000      -1.34982200      -0.41040300       0.77957500      -1.76743600
O        3.82535000       0.35224000      29.40140000      -1.38361100      -1.01504400       0.67307000       1.17976000
O        8.84313000       2.77442000       7.02180000      -1.43048200       1.90664500       1.19844400       0.68952600
O        0.68379000       8.17712000       7.67290000      -1.30735200      -0.66035800       0.73513500       1.03037700
O        5.81560000       6.88038000       1.03840000      -1.34010100      -0.85692700       2.38760700      -1.05862000
O        8.09131000       8.20796000       1.62247000      -1.31603600      -0.49392800      -1.26343800       0.93050400
O        5.21616000       0.83054000      22.31310000      -1.28452700       0.65726500       0.54900800       0.92241600
O        2.43962000       2.68231000      27.19680000      -1.33762900      -0.96741500       0.50345700       0.19727800
O        3.88645000       4.99176000       2.32690000      -1.31427200       0.66266000      -2.10311500       0.56962200
O        1.63951000       5.72971000       6.12978000      -1.35095200       0.96866700      -0.68317600      -0.17997500
O        0.72618000       2.33901000      23.44140000      -1.35353700       1.40441000       0.85029100       1.12320600
O        2.76122000       6.00539000      27.47040000      -1.32524800       0.25395900      -0.97992000      -0.33303200
O        1.14474000       1.84693000      29.41750000      -1.31342900       0.08162400      -1.53796900      -1.21163000
O        3.02861000       1.10845000       6.83317000      -1.27725600       0.97268300       0.14567200       0.17109900
O        5.00813000       7.38821000       3.63674000      -1.29734600      -1.82877900      -1.26759500       0.05284100
O        5.29971000       1.74090000       1.09715000      -1.29662400      -0.24919500      -1.03260500      -0.25154300
O        2.66253000       5.21874000      30.12624000      -1.23726500       0.74965200      -0.58256400      -0.94545600
H        6.93548000       5.78606000       5.27292000       0.65506000      -1.04045700      -0.21745300      -0.32817600
H        5.52422000       6.03147000       4.48771000       0.62307100       2.06308800      -2.08686200       1.18702900
H        0.95998000       5.11565000      25.23550000       0.72304000      -0.10773700       1.19893200      -0.56921000
H        0.47283000       3.71897000      24.52260000       0.70680500       0.20792800       0.66789300       0.10495900
H        1.93345000       4.93522000       2.89999000       0.62121600      -1.32086900      -0.18660700       0.04840100
H        6.73139000       3.58467000      25.66760000       0.68771700       1.38783900       0.19976800       0.43235200
H        9.23444000       0.17742000      28.28420000       0.67799300       1.04774600      -0.03518800       1.11067200
H        7.89363000       0.47748000      27.70690000       0.63519900       1.67280000      -0.45745100      -0.87235100
H        7.54811000       2.58979000      29.52910000       0.63820300       0.18128900       0.06728800       0.44311600
H        7.85448000       3.14143000      28.08190000       0.64908900      -0.70017200      -1.19407900       0.58134600
H        2.61116000       0.22785000       1.31120000       0.62992600      -0.56881600      -0.33390100      -0.34146800
H        4.85001000       2.22834000      25.04450000       0.72100700       0.30918400       0.59620000       0.15618600
H        7.36207000       8.52261000      24.78810000       0.71027500      -0.19759800      -0.04985800       0.04576900
H        7.66142000       4.71285000      23.32160000       0.63588900       0.67473700      -0.13746700       0.07335100
H        0.12703000       0.77452000      26.26750000       0.66195100       0.69644900       0.00874100      -1.11754900
H        2.31267000       8.16410000       2.50918000       0.64340200      -0.48741500       0.05546400       0.04109900
H        0.75615000       1.84567000       4.11192000       0.67060000       1.14844000       0.55154400      -0.98868100
H        2.46387000       4.30505000      23.32900000       0.62730300       0.07285500       0.31231500       0.32024800
H        3.39093000       4.79168000      22.29530000       0.60129400       0.27837100       0.24361100      -0.63522300
H       10.12610000       5.08216000       1.20587000       0.67163900       1.67038500       0.14256700       2.05989600
H        1.02058000       1.21272000      24.92760000       0.66685100      -0.30072500       0.88773500       0.05668700
H        6.87582000       2.68497000       1.52045000       0.66812700      -0.87063400      -0.63961400       0.16119100
H        6.35203000       0.54200000       6.30877000       0.65652800       0.14978800      -0.10344100       0.57311800
H        6.58697000       0.08138000       7.83224000       0.61479000      -1.16344800      -0.33063100       1.34726400
H        3.61109000       1.34657000      25.29450000       0.65886500      -2.25246900       0.11859300       1.55689100
H        8.80848000       0.31043000      24.61660000       0.59553700      -0.75952800      -0.49455400      -0.42281000
H        8.86380000       6.03226000       7.19820000       0.68293200       0.54927300      -0.48296800       0.09371600
H        9.16732000       4.48579000       7.42108000       0.68859900      -0.11510000       0.09353500       0.24006200
H        8.84357000       4.19638000      22.49060000       0.60560500       0.01800100      -0.21560300      -0.36586800
H        0.65317000       4.06594000       3.10992000       0.66212200      -0.15133900      -1.85734000       0.48262600
H        8.12131000       7.06101000      28.11070000       0.67425300       0.32126100       0.56523100      -0.23135700
H        1.24600000       7.66341000      28.47730000       0.67169400      -0.30766000      -0.12138300       0.78504100
H        0.67603000       7.56130000      29.94340000       0.66934500       0.50012800      -0.48845600       0.62833200
H        7.65610000       7.66915000       6.38876000       0.66512100       0.55179200      -0.56692200      -0.91844300
H        8.71074000       7.31515000       5.22011000       0.66924100       0.45890400       0.20822500      -0.45111100
H        8.16703000       5.19511000      27.26890000       0.65359000       0.49465700      -1.55681700      -1.07794300
H        9.22859000       4.25460000      26.42600000       0.66413000       0.55730800       0.33435800      -0.41529800
H        8.64626000       6.00959000      29.16460000       0.63960600      -1.70246600       0.42972300      -1.26003500
H        8.71873000       4.72780000       0.90512000       0.66624000      -0.06350000      -0.33809200      -0.03116500
H        5.90909000       6.65676000      28.46240000       0.67635800      -1.22049500       0.08560700      -0.77776700
H        4.47054000       6.55163000      27.59230000       0.66624000       0.28957700      -0.31554400       0.75101900
H        1.16568000       1.41273000       2.63735000       0.65641600      -0.06322800      -0.05478800       0.03953300
H        1.25555000       7.69277000      25.17510000       0.66092700      -0.07316000      -2.10544200      -0.06318600
H        1.67986000       6.52973000      24.16920000       0.65175000       0.21665800       0.05951200      -0.14073000
H        7.94029000       2.81744000       2.61000000       0.66545500      -0.07977500       0.04566600       0.34884300
H        4.88321000       4.22359000       6.00802000       0.65866100       0.36046700       0.49935000      -0.35687000
H        8.90584000       7.66781000      23.00070000       0.67389400      -0.55000700       1.07683500       0.29254700
H        0.61019000       7.82995000       3.95646000       0.65472900      -1.10672900      -0.25094700       0.16279000
H        9.09776000       6.17075000      22.99530000       0.64078000       0.91187200       0.93421600      -1.11881800
H        4.43360000       4.25509000       7.46357000       0.61336700      -0.26488200       0.07392800      -0.03731500
H        0.02409000       6.54560000       3.51706000       0.67398400       0.51484600      -2.29226200      -0.50164500
H        2.20825000       6.99840000       5.24774000       0.70429200      -0.53270000      -1.56866800       1.07459100
H        2.61188000       8.46576000       5.47675000       0.66717700      -0.00706600      -0.28300800      -0.32889800
H        7.02256000       3.77765000       4.80800000       0.66265700       0.66408500      -0.01618700      -0.11247400
H        1.61969000       1.36316000       6.18578000       0.68741100      -0.44083300       0.58596000      -0.02699000
H        4.10813000       1.89609000       2.53986000       0.65375300      -0.00397700       0.15914100       0.04299500
H        6.90135000       2.29637000       4.55848000       0.64410200       1.40808800       0.36516100       0.53649700
H        2.70381000       2.41195000       3.19983000       0.66614800       1.16907900      -0.33294900       0.32835300
H        5.36636000       0.14858000      25.39100000       0.67966900      -0.40827800       0.55018500      -0.25289300
H        5.79484000       7.65716000      26.19860000       0.67637200       0.04192800       0.19941000       0.42978100
H        4.76946000       1.46503000       4.56341000       0.67942100       1.17340600      -1.15186100      -0.55706400
H        4.76385000       5.82626000      23.55150000       0.65290200       0.19754100      -0.05480700       0.07154200
H        5.46981000       8.77707000       4.24092000       0.67952400      -0.31736200       1.28512900       0.14900800
H        5.74310000       6.80661000      24.21660000       0.68404100       0.17533900       0.98722300       0.33365700
H        2.82076000       5.04185000      27.27510000       0.64226100      -0.13209200       0.54614000       0.18470700
H        4.19346000       2.64806000      27.52060000       0.66075500       0.62646900       0.01999400       1.60203200
H        5.67811000       2.64808000      28.11660000       0.68092600      -0.24675100      -0.26626900       0.42988800
H        4.25973000       8.44438000      28.93000000       0.68584600       0.81144800      -1.27256100      -0.73958800
H        8.42671000       2.83281000       6.16450000       0.73613600      -1.24502300      -0.21167600      -1.14346300
H        1.05900000       7.59460000       7.03383000       0.65480400       0.39260300      -0.93410700      -0.90104000
H        8.40479000       2.12366000       7.55240000       0.66280900      -0.66303800      -0.76506500       0.47234300
H        4.08782000       1.18703000      28.95710000       0.67578900       0.13710500      -0.15138000      -0.09528400
H        0.20617000       0.10631000       7.21173000       0.66197100       0.24955100      -0.21394600      -0.11487700
H        5.63506000       6.03564000       1.34374000       0.66139300      -0.35979800      -2.82773600       0.79001600
H        6.70089000       7.15610000       1.24871000       0.68359800       1.14414000       0.20712500       0.15487200
H        0.18152000       2.14971000       6.09713000       0.66295700       0.34600700      -0.44571000       0.49063400
H        4.43359000       0.89622000      22.89990000       0.66319500       0.56247300       0.10058800      -0.24717200
H        1.74019000       3.10916000      26.65540000       0.65042900       0.31414700      -0.07722000      -0.10945400
H        5.91460000       1.41968000      22.69760000       0.63428200      -0.83108700      -0.73005200      -0.28667000
H        8.60402000       0.07119000       1.20068000       0.64122900       0.69414500       1.73830800      -1.35544800
H        1.99017000       2.48641000      28.06930000       0.66991600       0.36064500      -0.10507500      -0.58857000
H        4.14003000       3.99861000       2.50981000       0.62245400      -0.83554500       2.11162100       0.14332000
H        3.39626000       4.95110000       1.48530000       0.66805000       0.08970700       0.15085400      -0.32151300
H        5.63090000       4.39280000      25.02320000       0.68093500      -0.02671500       0.79940600      -0.49646500
H        2.46475000       5.19845000       6.15271000       0.65863300       0.02594300       0.12413600       0.21017800
H        1.48560000       2.20987000      22.82720000       0.63839200      -1.19601700      -0.47132600      -0.37084400
H        1.04506000       5.22751000       6.69267000       0.67870700      -0.69306900       0.19556600       0.36627200
H       10.08140000       1.82881000      23.28260000       0.66983100      -0.27495600      -0.58839900      -1.18245700
H        2.46088000       6.33622000      26.60970000       0.67817700      -0.28061100       0.20904900      -0.57156400
H        8.73190000       7.92983000       2.29430000       0.67141100      -0.00850900      -0.44479200       0.65734900
H        0.94365000       2.22217000       0.13174000       0.64936000      -0.28366600      -0.13301700       0.73009700
H        1.05815000       0.81799000      29.38090000       0.65464000       0.07825100       1.90024400       0.56457800
H        3.74107000       1.78429000       6.72070000       0.63449600      -0.80567000      -0.36926600       0.26472000
H        3.02346000       0.89394000       7.81092000       0.58265700       0.08048200       0.16649300      -0.58625800
H        4.06548000       7.05338000       3.66697000       0.63669500       1.10640000       0.81844800       0.37366300
H        5.26506000       7.09302000       2.74511000       0.68654200       0.38779100       0.37140800      -0.50056000