 vasp.6.4.3 19Mar24 (build Sep  4 2024 12:23:58) complex                         
 executed on              LinuxNV date 2025.10.06  22:25:01
 running    4 mpi-ranks, with    1 threads/rank, on    1 nodes
 distrk:  each k-point on    2 cores,    2 groups
 distr:  one band on NCORE=   1 cores,    2 groups
 OpenACC runtime initialized ...    4 GPUs detected


--------------------------------------------------------------------------------------------------------


 INCAR:
   ENCUT = 800.000000
   SIGMA = 0.100000
   EDIFF = 1.00e-07
   ALGO = fast
   METAGGA = R2SCAN
   PREC = Accurate
   IBRION = -1
   ICHARG = 2
   ISMEAR = 0
   ISTART = 0
   KPAR = 2
   NELM = 160
   NPAR = 2
   NCORE = 1
   LAECHG = .TRUE.
   LASPH = .TRUE.
   LVHAR = .TRUE.
   LMIXTAU = .TRUE.
   LREAL = Auto

 POTCAR:    PAW_PBE Cu 22Jun2005                  
 POTCAR:    PAW_PBE O_h 06Feb2004                 
 POTCAR:    PAW_PBE H_h 06Feb2004                 
 POTCAR:    PAW_PBE Cu 22Jun2005                  
   VRHFIN =Cu: d10 p1                                                                               
   LEXCH  = PE                                                                                      
   EATOM  =  1390.9808 eV,  102.2342 Ry                                                             
                                                                                                    
   TITEL  = PAW_PBE Cu 22Jun2005                                                                    
   LULTRA =        F    use ultrasoft PP ?                                                          
   IUNSCR =        1    unscreen: 0-lin 1-nonlin 2-no                                               
   RPACOR =    2.000    partial core radius                                                         
   POMASS =   63.546; ZVAL   =   11.000    mass and valenz                                          
   RCORE  =    2.300    outmost cutoff radius                                                       
   RWIGS  =    2.200; RWIGS  =    1.164    wigner-seitz radius (au A)                               
   ENMAX  =  295.446; ENMIN  =  221.585 eV                                                          
   ICORE  =        3    local potential                                                             
   LCOR   =        T    correct aug charges                                                         
   LPAW   =        T    paw PP                                                                      
   EAUG   =  586.980                                                                                
   DEXC   =    0.000                                                                                
   RMAX   =    2.344    core radius for proj-oper                                                   
   RAUG   =    1.300    factor for augmentation sphere                                              
   RDEP   =    2.302    radius for radial grids                                                     
   RDEPT  =    1.771    core radius for aug-charge                                                  
                                                                                                    
   Atomic configuration                                                                             
    9 entries                                                                                       
     n  l   j            E        occ.                                                              
     1  0  0.50     -8850.2468   2.0000                                                             
     2  0  0.50     -1062.3498   2.0000                                                             
     2  1  1.50      -916.8226   6.0000                                                             
     3  0  0.50      -114.6929   2.0000                                                             
     3  1  1.50       -72.1325   6.0000                                                             
     3  2  2.50        -5.0394  10.0000                                                             
     4  0  0.50        -4.6097   1.0000                                                             
     4  1  0.50        -4.0817   0.0000                                                             
     4  3  2.50        -1.3606   0.0000                                                             
   Description                                                                                      
     l       E           TYP  RCUT    TYP  RCUT                                                     
     2     -5.0393973     23  2.200                                                                 
     2     10.8846608     23  2.200                                                                 
     0     -4.6097109     23  2.200                                                                 
     0      8.2520465     23  2.200                                                                 
     1     -2.7211652     23  2.200                                                                 
     1     21.7055443     23  2.200                                                                 
     3      2.7211652     23  2.300                                                                 
  local pseudopotential read in
  partial core-charges read in
  partial kinetic energy density read in
  atomic valenz-charges read in
  non local Contribution for L=            2  read in
    real space projection operators read in
  non local Contribution for L=            2  read in
    real space projection operators read in
  non local Contribution for L=            0  read in
    real space projection operators read in
  non local Contribution for L=            0  read in
    real space projection operators read in
  non local Contribution for L=            1  read in
    real space projection operators read in
  non local Contribution for L=            1  read in
    real space projection operators read in
    PAW grid and wavefunctions read in
 
   number of l-projection  operators is LMAX  =            6
   number of lm-projection operators is LMMAX =           18
 
 POTCAR:    PAW_PBE O_h 06Feb2004                 
   VRHFIN =O: s2p4                                                                                  
   LEXCH  = PE                                                                                      
   EATOM  =   432.3788 eV,   31.7789 Ry                                                             
                                                                                                    
   TITEL  = PAW_PBE O_h 06Feb2004                                                                   
   LULTRA =        F    use ultrasoft PP ?                                                          
   IUNSCR =        1    unscreen: 0-lin 1-nonlin 2-no                                               
   RPACOR =    0.800    partial core radius                                                         
   POMASS =   16.000; ZVAL   =    6.000    mass and valenz                                          
   RCORE  =    1.100    outmost cutoff radius                                                       
   RWIGS  =    1.400; RWIGS  =    0.741    wigner-seitz radius (au A)                               
   ENMAX  =  700.000; ENMIN  =  500.000 eV                                                          
   ICORE  =        2    local potential                                                             
   LCOR   =        T    correct aug charges                                                         
   LPAW   =        T    paw PP                                                                      
   EAUG   =  888.804                                                                                
   DEXC   =    0.000                                                                                
   RMAX   =    1.128    core radius for proj-oper                                                   
   RAUG   =    1.300    factor for augmentation sphere                                              
   RDEP   =    1.125    radius for radial grids                                                     
   RDEPT  =    1.088    core radius for aug-charge                                                  
                                                                                                    
   Atomic configuration                                                                             
    4 entries                                                                                       
     n  l   j            E        occ.                                                              
     1  0  0.50      -514.6923   2.0000                                                             
     2  0  0.50       -23.9615   2.0000                                                             
     2  1  0.50        -9.0305   4.0000                                                             
     3  2  1.50        -9.5241   0.0000                                                             
   Description                                                                                      
     l       E           TYP  RCUT    TYP  RCUT                                                     
     0    -23.9615319     23  1.100                                                                 
     0    -25.3221145     23  1.100                                                                 
     1     -9.0304911     23  1.100                                                                 
     1     -5.4802209     23  1.100                                                                 
     2     -9.5240782      7  1.100                                                                 
  local pseudopotential read in
  partial core-charges read in
  partial kinetic energy density read in
  atomic valenz-charges read in
  non local Contribution for L=            0  read in
    real space projection operators read in
  non local Contribution for L=            0  read in
    real space projection operators read in
  non local Contribution for L=            1  read in
    real space projection operators read in
  non local Contribution for L=            1  read in
    real space projection operators read in
    PAW grid and wavefunctions read in
 
   number of l-projection  operators is LMAX  =            4
   number of lm-projection operators is LMMAX =            8
 
 POTCAR:    PAW_PBE H_h 06Feb2004                 
   VRHFIN =H: ultrasoft test                                                                        
   LEXCH  = PE                                                                                      
   EATOM  =    12.4884 eV,    0.9179 Ry                                                             
                                                                                                    
   TITEL  = PAW_PBE H_h 06Feb2004                                                                   
   LULTRA =        F    use ultrasoft PP ?                                                          
   IUNSCR =        0    unscreen: 0-lin 1-nonlin 2-no                                               
   RPACOR =    0.000    partial core radius                                                         
   POMASS =    1.000; ZVAL   =    1.000    mass and valenz                                          
   RCORE  =    0.800    outmost cutoff radius                                                       
   RWIGS  =    0.700; RWIGS  =    0.370    wigner-seitz radius (au A)                               
   ENMAX  =  700.000; ENMIN  =  350.000 eV                                                          
   RCLOC  =    0.701    cutoff for local pot                                                        
   LCOR   =        T    correct aug charges                                                         
   LPAW   =        T    paw PP                                                                      
   EAUG   = 1000.000                                                                                
   RMAX   =    0.819    core radius for proj-oper                                                   
   RAUG   =    1.000    factor for augmentation sphere                                              
   RDEP   =    0.817    radius for radial grids                                                     
   RDEPT  =    0.817    core radius for aug-charge                                                  
                                                                                                    
   Atomic configuration                                                                             
    2 entries                                                                                       
     n  l   j            E        occ.                                                              
     1  0  0.50        -6.4927   1.0000                                                             
     2  1  0.50        -3.4015   0.0000                                                             
   Description                                                                                      
     l       E           TYP  RCUT    TYP  RCUT                                                     
     0     -6.4927493     23  0.800                                                                 
     0      6.8029130     23  0.800                                                                 
     1     -6.8029130     23  0.800                                                                 
  local pseudopotential read in
  atomic valenz-charges read in
  non local Contribution for L=            0  read in
    real space projection operators read in
  non local Contribution for L=            0  read in
    real space projection operators read in
  non local Contribution for L=            1  read in
    real space projection operators read in
    PAW grid and wavefunctions read in
 
   number of l-projection  operators is LMAX  =            3
   number of lm-projection operators is LMMAX =            5
 
 Optimization of the real space projectors (new method)

 maximal supplied QI-value         = 16.25
 optimisation between [QCUT,QGAM] = [ 14.46, 28.93] = [ 58.58,234.33] Ry 
 Optimized for a Real-space Cutoff    1.35 Angstroem

   l    n(q)    QCUT    max X(q) W(low)/X(q) W(high)/X(q)  e(spline) 
   2     11    14.464     4.610    0.56E-04    0.10E-03    0.52E-06
   2     11    14.464     8.522    0.88E-04    0.16E-03    0.84E-06
   0     12    14.464    51.609    0.44E-04    0.29E-04    0.63E-06
   0     12    14.464    27.747    0.38E-04    0.27E-04    0.60E-06
   1     11    14.464    20.408    0.64E-04    0.66E-04    0.14E-06
   1     11    14.464    13.425    0.56E-04    0.59E-04    0.13E-06
 Optimization of the real space projectors (new method)

 maximal supplied QI-value         = 34.20
 optimisation between [QCUT,QGAM] = [ 14.37, 28.73] = [ 57.79,231.16] Ry 
 Optimized for a Real-space Cutoff    0.98 Angstroem

   l    n(q)    QCUT    max X(q) W(low)/X(q) W(high)/X(q)  e(spline) 
   0      8    14.366   280.207    0.54E-04    0.14E-03    0.22E-06
   0      8    14.366   228.978    0.55E-04    0.14E-03    0.22E-06
   1      8    14.366    86.127    0.24E-03    0.25E-03    0.26E-06
   1      8    14.366    65.368    0.24E-03    0.24E-03    0.26E-06
 Optimization of the real space projectors (new method)

 maximal supplied QI-value         = 47.24
 optimisation between [QCUT,QGAM] = [ 14.17, 28.82] = [ 56.25,232.56] Ry 
 Optimized for a Real-space Cutoff    0.95 Angstroem

   l    n(q)    QCUT    max X(q) W(low)/X(q) W(high)/X(q)  e(spline) 
   0      8    14.173    34.671    0.25E-03    0.45E-03    0.25E-06
   0      8    14.173    17.046    0.24E-03    0.43E-03    0.25E-06
   1      8    14.173     1.978    0.58E-04    0.22E-03    0.31E-06
 -----------------------------------------------------------------------------
|                                                                             |
|               ----> ADVICE to this user running VASP <----                  |
|                                                                             |
|     You enforced a specific xc type in the INCAR file but a different       |
|     type was found in the POTCAR file.                                      |
|     I HOPE YOU KNOW WHAT YOU ARE DOING!                                     |
|                                                                             |
 -----------------------------------------------------------------------------

  PAW_PBE Cu 22Jun2005                  :
 energy of atom  1       EATOM=-1390.9808
 kinetic energy error for atom=    0.0007 (will be added to EATOM!!)
  PAW_PBE O_h 06Feb2004                 :
 energy of atom  2       EATOM= -432.3788
 kinetic energy error for atom=    0.0500 (will be added to EATOM!!)
  PAW_PBE H_h 06Feb2004                 :
 energy of atom  3       EATOM=  -12.4884
 kinetic energy error for atom=    0.0035 (will be added to EATOM!!)
 
 
 POSCAR: Cu O  H
  positions in cartesian coordinates
  No initial velocities read in


 exchange-correlation table for R2SCAN
   RHO(1)=    0.500       N(1)  =     2000
   RHO(2)=  100.500       N(2)  =     4000
 


--------------------------------------------------------------------------------------------------------


 ion  position               nearest neighbor table
   1  0.697  0.135  0.324-   5 2.43  18 2.52   4 2.55   2 2.55   8 2.58  16 2.58  17 2.60  15 2.63
                            32 2.68
   2  0.948  0.143  0.331-  19 2.47   6 2.48  18 2.51   1 2.55  29 2.56   3 2.58   5 2.62  13 2.63
                            16 2.70
   3  0.202  0.131  0.330-   7 2.41   4 2.48  30 2.48  19 2.50  20 2.52   6 2.57   2 2.58  13 2.65
                            14 2.65
   4  0.446  0.117  0.325-  15 2.41   3 2.48  20 2.54   1 2.55  17 2.56   7 2.57   8 2.58  31 2.59
                            14 2.61
   5  0.798  0.385  0.330-  21 2.37   1 2.43   8 2.44  12 2.49  22 2.50   9 2.57  18 2.59   2 2.62

   6  0.074  0.384  0.328-  23 2.39   9 2.44  22 2.45   2 2.48   7 2.49  10 2.54   3 2.57  19 2.62

   7  0.319  0.370  0.329-   3 2.41   8 2.42  20 2.44   6 2.49  11 2.50  23 2.50  10 2.55   4 2.57
                            24 2.64
   8  0.558  0.381  0.327-  11 2.34   7 2.42   5 2.44  21 2.49  12 2.53  17 2.57   4 2.58   1 2.58
                            24 2.67
   9  0.947  0.620  0.326- 110 2.14   6 2.44  22 2.47  13 2.54   5 2.57  26 2.57  16 2.61  10 2.63
                            25 2.64  12 2.74
  10  0.207  0.628  0.322-  14 2.34  11 2.44   6 2.54   7 2.55  13 2.61  23 2.63   9 2.63  27 2.71
                            26 2.75
  11  0.446  0.614  0.328-   8 2.34  12 2.35  10 2.44  28 2.46  24 2.48   7 2.50  14 2.53  15 2.61
                            27 2.65
  12  0.678  0.633  0.329-  11 2.35  28 2.43  15 2.45   5 2.49   8 2.53  21 2.53  16 2.55  25 2.60
                             9 2.74
  13  0.064  0.876  0.325- 133 2.18  16 2.52   9 2.54  30 2.55  14 2.57  29 2.58  10 2.61  26 2.62
                             2 2.63   3 2.65
  14  0.317  0.860  0.330-  10 2.34  27 2.45  15 2.49  31 2.52  11 2.53  30 2.56  13 2.57   4 2.61
                             3 2.65
  15  0.563  0.879  0.327-   4 2.41  28 2.45  12 2.45  14 2.49  32 2.51  31 2.57  16 2.57  11 2.61
                             1 2.63
  16  0.816  0.875  0.330-  32 2.40  13 2.52  29 2.54  12 2.55  15 2.57   1 2.58  25 2.60   9 2.61
                             2 2.70
  17  0.565  0.207  0.396-  20 2.31  18 2.44  21 2.46  31 2.55  37 2.56  33 2.56   4 2.56   8 2.57
                            40 2.58   1 2.60  32 2.61  24 2.72
  18  0.806  0.200  0.397-  17 2.44  32 2.48  34 2.50   2 2.51   1 2.52  37 2.53  21 2.55  29 2.56
                            38 2.59   5 2.59  22 2.67  19 2.74
  19  0.076  0.207  0.398-  30 2.42  39 2.45   2 2.47   3 2.50  35 2.51  23 2.52  29 2.53  38 2.59
                            22 2.59   6 2.62  20 2.66  18 2.74
  20  0.338  0.213  0.396-  17 2.31  40 2.43   7 2.44  31 2.46   3 2.52   4 2.54  24 2.55  36 2.60
                            19 2.66  23 2.68  39 2.68  30 2.72
  21  0.682  0.453  0.395-   5 2.37  17 2.46  24 2.49   8 2.49  12 2.53  25 2.55  18 2.55  37 2.56
                            44 2.57  41 2.62  28 2.66  22 2.66
  22  0.944  0.459  0.393-  25 2.44   6 2.45  23 2.46   9 2.47  26 2.50   5 2.50  19 2.59  42 2.60
                            38 2.64  21 2.66  41 2.67  18 2.67
  23  0.187  0.463  0.394-   6 2.39  26 2.46  22 2.46   7 2.50  19 2.52  24 2.56  27 2.59  42 2.59
                            43 2.60  10 2.63  39 2.63  20 2.68
  24  0.438  0.479  0.401-  27 2.39  44 2.40  43 2.40  28 2.43  11 2.48  21 2.49  20 2.55  40 2.56
                            23 2.56   7 2.64   8 2.67  17 2.72
  25  0.819  0.696  0.399-  41 2.43  22 2.44  45 2.49  26 2.51  21 2.55  48 2.56  32 2.56  12 2.60
                            16 2.60   9 2.64  29 2.66  28 2.68
  26  0.066  0.706  0.396-  23 2.46  22 2.50  25 2.51  30 2.53  29 2.53  46 2.53  42 2.53  27 2.56
                             9 2.57  45 2.57  13 2.62  10 2.75
  27  0.319  0.714  0.399-  24 2.39  28 2.41  47 2.43  31 2.45  14 2.45  46 2.50  43 2.51  26 2.56
                            30 2.57  23 2.59  11 2.65  10 2.71
  28  0.556  0.719  0.394-  27 2.41  31 2.42  12 2.43  24 2.43  15 2.45  32 2.46  11 2.46  47 2.55
                            48 2.61  44 2.66  21 2.66  25 2.68
  29  0.948  0.960  0.397-  30 2.38  35 2.47  19 2.53  26 2.53  16 2.54  45 2.54  18 2.56   2 2.56
                            32 2.58  34 2.58  13 2.58  25 2.66
  30  0.183  0.961  0.396-  29 2.38  19 2.42   3 2.48  26 2.53  35 2.54  13 2.55  14 2.56  27 2.57
                            31 2.57  46 2.58  36 2.59  20 2.72
  31  0.436  0.958  0.398-  28 2.42  27 2.45  20 2.46  36 2.52  47 2.52  14 2.52  33 2.53  17 2.55
                            15 2.57  30 2.57   4 2.59  32 2.62
  32  0.694  0.949  0.395-  16 2.40  28 2.46  18 2.48  15 2.51  48 2.54  25 2.56  34 2.57  29 2.58
                            17 2.61  31 2.62  33 2.64   1 2.68
  33  0.562  0.042  0.466-  31 2.53  47 2.54  36 2.54  48 2.54  52 2.54  40 2.54  63 2.54  49 2.54
                            37 2.54  34 2.54  17 2.56  32 2.64
  34  0.813  0.042  0.466-  18 2.50  45 2.54  35 2.54  48 2.54  50 2.54  38 2.54  64 2.54  49 2.54
                            37 2.54  33 2.54  32 2.57  29 2.58
  35  0.063  0.042  0.466-  29 2.47  19 2.51  34 2.54  46 2.54  45 2.54  61 2.54  36 2.54  51 2.54
                            39 2.54  50 2.54  38 2.54  30 2.54
  36  0.313  0.042  0.466-  31 2.52  33 2.54  47 2.54  46 2.54  62 2.54  35 2.54  52 2.54  51 2.54
                            40 2.54  39 2.54  30 2.59  20 2.60
  37  0.688  0.292  0.466-  18 2.53  38 2.54  40 2.54  41 2.54  44 2.54  53 2.54  56 2.54  49 2.54
                            34 2.54  33 2.54  17 2.56  21 2.56
  38  0.937  0.292  0.466-  41 2.54  37 2.54  42 2.54  53 2.54  34 2.54  39 2.54  54 2.54  50 2.54
                            35 2.54  19 2.59  18 2.59  22 2.64
  39  0.187  0.292  0.466-  19 2.45  42 2.54  43 2.54  54 2.54  55 2.54  38 2.54  35 2.54  51 2.54
                            36 2.54  40 2.54  23 2.63  20 2.68
  40  0.438  0.292  0.466-  20 2.43  44 2.54  37 2.54  43 2.54  56 2.54  33 2.54  55 2.54  52 2.54
                            36 2.54  39 2.54  24 2.56  17 2.58
  41  0.813  0.542  0.466-  25 2.43  38 2.54  37 2.54  42 2.54  45 2.54  57 2.54  48 2.54  53 2.54
                            60 2.54  44 2.54  21 2.62  22 2.67
  42  0.063  0.542  0.466-  26 2.53  39 2.54  38 2.54  41 2.54  43 2.54  46 2.54  58 2.54  54 2.54
                            45 2.54  57 2.54  23 2.59  22 2.60
  43  0.313  0.542  0.466-  24 2.40  27 2.51  44 2.54  40 2.54  39 2.54  42 2.54  47 2.54  46 2.54
                            55 2.54  59 2.54  58 2.54  23 2.60
  44  0.562  0.542  0.466-  24 2.40  40 2.54  43 2.54  37 2.54  47 2.54  59 2.54  48 2.54  56 2.54
                            60 2.54  41 2.54  21 2.57  28 2.66
  45  0.937  0.792  0.466-  25 2.49  34 2.54  48 2.54  35 2.54  41 2.54  64 2.54  46 2.54  57 2.54
                            42 2.54  61 2.54  29 2.54  26 2.57
  46  0.187  0.792  0.466-  27 2.50  26 2.53  35 2.54  36 2.54  42 2.54  45 2.54  61 2.54  43 2.54
                            58 2.54  62 2.54  47 2.54  30 2.58
  47  0.438  0.792  0.466-  27 2.43  31 2.52  33 2.54  48 2.54  36 2.54  44 2.54  63 2.54  43 2.54
                            59 2.54  62 2.54  46 2.54  28 2.55
  48  0.688  0.792  0.466-  45 2.54  47 2.54  34 2.54  33 2.54  41 2.54  44 2.54  60 2.54  64 2.54
                            63 2.54  32 2.54  25 2.56  28 2.61
  49  0.688  0.125  0.534-  65 2.43  66 2.53  50 2.54  52 2.54  53 2.54  56 2.54  64 2.54  63 2.54
                            37 2.54  34 2.54  33 2.54  80 2.70
  50  0.937  0.125  0.534-  67 2.51  53 2.54  64 2.54  49 2.54  54 2.54  61 2.54  34 2.54  51 2.54
                            38 2.54  35 2.54  66 2.58  77 2.62
  51  0.187  0.125  0.534-  68 2.37  67 2.52  54 2.54  55 2.54  61 2.54  62 2.54  50 2.54  35 2.54
                            39 2.54  36 2.54  52 2.54  78 2.60
  52  0.438  0.125  0.534-  68 2.47  65 2.52  56 2.54  63 2.54  49 2.54  55 2.54  62 2.54  33 2.54
                            40 2.54  36 2.54  51 2.54  79 2.58
  53  0.813  0.375  0.534-  70 2.50  69 2.50  50 2.54  49 2.54  54 2.54  38 2.54  57 2.54  37 2.54
                            60 2.54  41 2.54  56 2.54  66 2.58
  54  0.063  0.375  0.534-  70 2.53  51 2.54  50 2.54  53 2.54  39 2.54  55 2.54  58 2.54  38 2.54
                            42 2.54  57 2.54  71 2.54  67 2.57
  55  0.313  0.375  0.534-  72 2.45  68 2.49  56 2.54  52 2.54  51 2.54  54 2.54  40 2.54  39 2.54
                            59 2.54  58 2.54  43 2.54  71 2.60
  56  0.562  0.375  0.534-  65 2.53  52 2.54  55 2.54  49 2.54  40 2.54  59 2.54  37 2.54  60 2.54
                            44 2.54  53 2.54  72 2.54  69 2.55
  57  0.937  0.625  0.534-  70 2.50  74 2.51  60 2.54  53 2.54  64 2.54  41 2.54  58 2.54  45 2.54
                            54 2.54  61 2.54  42 2.54  73 2.65
  58  0.187  0.625  0.534-  75 2.37  54 2.54  61 2.54  57 2.54  42 2.54  55 2.54  62 2.54  46 2.54
                            43 2.54  59 2.54  71 2.59  74 2.63
  59  0.438  0.625  0.534-  76 2.50  72 2.50  75 2.51  60 2.54  56 2.54  63 2.54  44 2.54  55 2.54
                            62 2.54  47 2.54  43 2.54  58 2.54
  60  0.688  0.625  0.534-  57 2.54  59 2.54  53 2.54  56 2.54  64 2.54  63 2.54  48 2.54  41 2.54
                            44 2.54  76 2.56  69 2.57  73 2.64
  61  0.063  0.875  0.534-  78 2.40  64 2.54  51 2.54  50 2.54  35 2.54  62 2.54  58 2.54  46 2.54
                            57 2.54  45 2.54  77 2.59  74 2.65
  62  0.313  0.875  0.534-  79 2.49  75 2.49  63 2.54  52 2.54  51 2.54  36 2.54  61 2.54  59 2.54
                            58 2.54  47 2.54  46 2.54  78 2.54
  63  0.562  0.875  0.534-  52 2.54  62 2.54  59 2.54  49 2.54  47 2.54  33 2.54  60 2.54  48 2.54
                            64 2.54  79 2.56  80 2.59  76 2.62
  64  0.813  0.875  0.534-  73 2.52  50 2.54  61 2.54  57 2.54  49 2.54  45 2.54  34 2.54  60 2.54
                            48 2.54  63 2.54  77 2.57  80 2.73
  65  0.571  0.201  0.601-  66 2.40  80 2.42  49 2.43  52 2.52  69 2.53  56 2.53  88 2.54  85 2.56
                            79 2.62  81 2.66  72 2.68  68 2.71
  66  0.808  0.205  0.604-  86 2.36  65 2.40  69 2.47  82 2.51  85 2.52  49 2.53  77 2.56  50 2.58
                            53 2.58  67 2.58  70 2.59  80 2.59
  67  0.062  0.201  0.603-  68 2.45  86 2.50  50 2.51  51 2.52  83 2.52  77 2.53  87 2.53  71 2.53
                            78 2.55  54 2.57  66 2.58  70 2.62
  68  0.303  0.200  0.599-  51 2.37  67 2.45  52 2.47  55 2.49  79 2.54  88 2.54  71 2.56  84 2.58
                            72 2.60  87 2.62  78 2.63  65 2.71
  69  0.693  0.453  0.603-  89 2.38  70 2.45  66 2.47  53 2.50  85 2.53  65 2.53  76 2.55  56 2.55
                            60 2.57  92 2.61  73 2.67  72 2.68
  70  0.934  0.461  0.602-  86 2.34  74 2.40  69 2.45  57 2.50  53 2.50  71 2.51  89 2.51  54 2.53
                            66 2.59  90 2.61  67 2.62  73 2.64
  71  0.182  0.454  0.605-  91 2.42  75 2.49  72 2.51  70 2.51  74 2.52  67 2.53  54 2.54  90 2.55
                            68 2.56  58 2.59  55 2.60  87 2.62
  72  0.428  0.458  0.601-  91 2.44  55 2.45  76 2.46  88 2.47  59 2.50  71 2.51  75 2.51  92 2.53
                            56 2.54  68 2.60  65 2.68  69 2.68
  73  0.811  0.725  0.606-  77 2.38  80 2.44  74 2.45  96 2.47  89 2.48  64 2.52  76 2.60  93 2.62
                            60 2.64  70 2.64  57 2.65  69 2.67
  74  0.051  0.698  0.605-  70 2.40  73 2.45  78 2.48  94 2.51  57 2.51  71 2.52  75 2.53  77 2.53
                            90 2.56  58 2.63  61 2.65  93 2.73
  75  0.299  0.702  0.600-  58 2.37  91 2.45  78 2.46  71 2.49  62 2.49  95 2.49  59 2.51  72 2.51
                            94 2.52  74 2.53  79 2.56  76 2.61
  76  0.556  0.696  0.604-  95 2.44  96 2.46  72 2.46  92 2.47  59 2.50  69 2.55  60 2.56  80 2.56
                            79 2.57  73 2.60  75 2.61  63 2.62
  77  0.936  0.954  0.605-  73 2.38  78 2.42  83 2.52  67 2.53  74 2.53  66 2.56  64 2.57  82 2.58
                            61 2.59  93 2.60  50 2.62  80 2.66
  78  0.174  0.941  0.602-  61 2.40  77 2.42  75 2.46  74 2.48  84 2.50  94 2.53  62 2.54  67 2.55
                            51 2.60  79 2.61  68 2.63  83 2.65
  79  0.431  0.951  0.603-  95 2.35  84 2.47  80 2.47  62 2.49  68 2.54  63 2.56  75 2.56  76 2.57
                            52 2.58  78 2.61  65 2.62  81 2.64
  80  0.674  0.954  0.608-  65 2.42  96 2.42  73 2.44  79 2.47  82 2.48  81 2.49  76 2.56  66 2.59
                            63 2.59  77 2.66  49 2.70  64 2.73
  81  0.554  0.041  0.676- 136 2.04  80 2.49  88 2.50  82 2.53  85 2.56  95 2.57  96 2.58  84 2.58
                            79 2.64  65 2.66
  82  0.803  0.045  0.673-  93 2.47  85 2.47  80 2.48  66 2.51  81 2.53  83 2.55  77 2.58  86 2.62
                            96 2.67
  83  0.054  0.048  0.674-  87 2.37  84 2.51  93 2.51  77 2.52  67 2.52  82 2.55  86 2.62  78 2.65
                            94 2.74
  84  0.300  0.027  0.669-  95 2.43  87 2.46  79 2.47  94 2.48  78 2.50  83 2.51  81 2.58  68 2.58
                            88 2.66
  85  0.684  0.291  0.673-  86 2.47  82 2.47  89 2.51  66 2.52  69 2.53  92 2.54  88 2.55  65 2.56
                            81 2.56
  86  0.926  0.305  0.665-  70 2.34  66 2.36  90 2.41  89 2.44  85 2.47  67 2.50  83 2.62  82 2.62
                            87 2.64
  87  0.184  0.272  0.673-  83 2.37  84 2.46  67 2.53  88 2.54  90 2.60  71 2.62  68 2.62  86 2.64
                            91 2.73
  88  0.433  0.287  0.667-  72 2.47  92 2.48  81 2.50  65 2.54  87 2.54  68 2.54  85 2.55  91 2.60
                            84 2.66
  89  0.801  0.542  0.668-  69 2.38  86 2.44  96 2.47  73 2.48  85 2.51  70 2.51  92 2.55  90 2.62
                            93 2.65
  90  0.059  0.530  0.675-  86 2.41  94 2.53  71 2.55  91 2.56  74 2.56  87 2.60  70 2.61  89 2.62
                            93 2.75
  91  0.309  0.546  0.667-  94 2.38  71 2.42  72 2.44  92 2.45  95 2.45  75 2.45  90 2.56  88 2.60
                            87 2.73
  92  0.550  0.535  0.671-  91 2.45  76 2.47  88 2.48  96 2.49  72 2.53  85 2.54  89 2.55  95 2.59
                            69 2.61
  93  0.927  0.804  0.680- 121 2.05  82 2.47  83 2.51  77 2.60  96 2.61  73 2.62  89 2.65  94 2.67
                            74 2.73  90 2.75
  94  0.187  0.777  0.671-  91 2.38  95 2.41  84 2.48  74 2.51  75 2.52  90 2.53  78 2.53  93 2.67
                            83 2.74
  95  0.424  0.791  0.666-  79 2.35  94 2.41  84 2.43  76 2.44  91 2.45  75 2.49  96 2.51  81 2.57
                            92 2.59
  96  0.672  0.781  0.671-  80 2.42  76 2.46  73 2.47  89 2.47  92 2.49  95 2.51  81 2.58  93 2.61
                            82 2.67
  97  0.605  0.600  0.164- 147 1.01 148 1.08
  98  0.067  0.480  0.841- 149 0.95 150 0.98
  99  0.574  0.404  0.844- 152 0.94 230 0.96
 100  0.866  0.005  0.912- 153 0.94 154 1.02
 101  0.727  0.273  0.949- 155 0.96 156 1.03
 102  0.432  0.160  0.823- 171 0.92 158 0.97
 103  0.851  0.518  0.776- 175 0.97 160 0.99
 104  0.182  0.979  0.059- 162 0.97 157 0.98
 105  0.112  0.251  0.106- 188 0.97 163 1.05
 106  0.302  0.576  0.769- 165 0.97 164 0.97
 107  0.067  0.058  0.846- 167 0.96 161 0.99
 108  0.691  0.033  0.233- 170 0.94 169 0.99
 109  0.791  0.998  0.800- 159 0.98 172 0.99
 110  0.934  0.614  0.255- 174 0.99 173 1.00   9 2.14
 111  0.092  0.561  0.095- 176 0.93 151 1.01
 112  0.778  0.707  0.946- 177 0.96 184 1.03
 113  0.056  0.910  0.966- 179 0.95 178 0.98
 114  0.797  0.788  0.193- 181 0.96 180 1.03
 115  0.819  0.498  0.884- 183 0.96 182 1.04
 116  0.939  0.579  0.017- 166 0.93 185 0.97
 117  0.513  0.810  0.927- 187 0.98 186 1.00
 118  0.143  0.759  0.833- 190 0.97 189 1.05
 119  0.765  0.341  0.056- 168 0.95 191 0.96
 120  0.403  0.478  0.217- 192 0.96 196 0.98
 121  0.932  0.800  0.748- 193 0.96 195 1.04  93 2.05
 122  0.973  0.843  0.124- 197 0.93 194 1.00
 123  0.226  0.891  0.160- 198 0.94 199 0.98
 124  0.752  0.340  0.158- 200 1.00 203 1.02
 125  0.072  0.162  0.190- 222 0.98 201 1.00
 126  0.367  0.270  0.110- 202 0.97 204 1.02
 127  0.596  0.939  0.845- 205 0.97 206 0.97
 128  0.555  0.107  0.151- 207 1.01 209 1.01
 129  0.559  0.673  0.793- 210 0.95 208 0.97
 130  0.467  0.290  0.942- 213 0.98 212 1.01
 131  0.377  0.040  0.976- 214 0.94 218 0.98
 132  0.872  0.316  0.233- 217 0.95 215 0.95
 133  0.067  0.931  0.255- 216 0.94 219 0.97  13 2.18
 134  0.574  0.783  0.034- 220 0.92 221 0.95
 135  0.798  0.935  0.054- 226 0.93 236 0.97
 136  0.514  0.095  0.741- 223 0.98 225 0.99  81 2.04
 137  0.241  0.305  0.903- 224 0.98 227 1.00
 138  0.383  0.568  0.077- 229 0.97 228 1.04
 139  0.162  0.652  0.203- 233 0.96 231 0.98
 140  0.072  0.266  0.778- 234 0.95 232 0.99
 141  0.272  0.684  0.912- 235 0.97 211 0.98
 142  0.113  0.210  0.976- 237 0.95 238 1.03
 143  0.299  0.126  0.227- 239 0.99 240 1.00
 144  0.494  0.841  0.121- 242 0.97 241 1.00
 145  0.523  0.198  0.036- 244 0.96 243 1.01
 146  0.263  0.594  1.000- 246 0.95 245 0.99
 147  0.684  0.659  0.175-  97 1.01
 148  0.545  0.687  0.149-  97 1.08
 149  0.095  0.583  0.838-  98 0.95
 150  0.047  0.423  0.814-  98 0.98
 151  0.191  0.562  0.096- 111 1.01
 152  0.664  0.408  0.852-  99 0.94
 153  0.911  0.020  0.939- 100 0.94
 154  0.778  0.054  0.920- 100 1.02
 155  0.744  0.295  0.980- 101 0.96
 156  0.775  0.358  0.932- 101 1.03
 157  0.258  0.026  0.044- 104 0.98
 158  0.478  0.254  0.831- 102 0.97
 159  0.726  0.970  0.823- 109 0.98
 160  0.756  0.537  0.774- 103 0.99
 161  0.013  0.088  0.872- 107 0.99
 162  0.228  0.930  0.083- 104 0.97
 163  0.075  0.210  0.136- 105 1.05
 164  0.243  0.490  0.774- 106 0.97
 165  0.334  0.546  0.740- 106 0.97
 166  0.999  0.579  0.040- 116 0.93
 167  0.101  0.138  0.827- 107 0.96
 168  0.678  0.306  0.050- 119 0.95
 169  0.626  0.062  0.209- 108 0.99
 170  0.650  0.009  0.260- 108 0.94
 171  0.356  0.153  0.839- 102 0.92
 172  0.869  0.035  0.817- 109 0.99
 173  0.874  0.687  0.239- 110 1.00
 174  0.904  0.511  0.246- 110 0.99
 175  0.872  0.478  0.746- 103 0.97
 176  0.064  0.463  0.103- 111 0.93
 177  0.801  0.804  0.933- 112 0.96
 178  0.123  0.873  0.945- 113 0.98
 179  0.067  0.861  0.994- 113 0.95
 180  0.755  0.873  0.212- 114 1.03
 181  0.859  0.833  0.173- 114 0.96
 182  0.805  0.592  0.905- 115 1.04
 183  0.910  0.484  0.877- 115 0.96
 184  0.853  0.684  0.968- 112 1.03
 185  0.860  0.538  0.030- 116 0.97
 186  0.583  0.758  0.945- 117 1.00
 187  0.441  0.746  0.916- 117 0.98
 188  0.115  0.161  0.088- 105 0.97
 189  0.124  0.876  0.836- 118 1.05
 190  0.166  0.744  0.802- 118 0.97
 191  0.783  0.321  0.087- 119 0.96
 192  0.482  0.481  0.199- 120 0.96
 193  0.878  0.873  0.763- 121 0.96
 194  0.060  0.892  0.131- 122 1.00
 195  0.897  0.703  0.763- 121 1.04
 196  0.437  0.485  0.248- 120 0.98
 197  0.002  0.745  0.117- 122 0.93
 198  0.218  0.797  0.174- 123 0.94
 199  0.258  0.964  0.182- 123 0.98
 200  0.693  0.430  0.160- 124 1.00
 201  0.160  0.155  0.205- 125 1.00
 202  0.405  0.216  0.084- 126 0.97
 203  0.681  0.261  0.151- 124 1.02
 204  0.267  0.275  0.106- 126 1.02
 205  0.529  0.017  0.843- 127 0.97
 206  0.571  0.872  0.869- 127 0.97
 207  0.470  0.167  0.151- 128 1.01
 208  0.470  0.663  0.782- 129 0.97
 209  0.539  0.999  0.141- 128 1.01
 210  0.566  0.775  0.804- 129 0.95
 211  0.278  0.574  0.905- 141 0.98
 212  0.414  0.302  0.913- 130 1.01
 213  0.560  0.302  0.933- 130 0.98
 214  0.420  0.962  0.960- 131 0.94
 215  0.831  0.323  0.205- 132 0.95
 216  0.104  0.865  0.233- 133 0.94
 217  0.829  0.242  0.251- 132 0.95
 218  0.403  0.135  0.961- 131 0.98
 219  0.020  0.012  0.239- 133 0.97
 220  0.556  0.687  0.045- 134 0.92
 221  0.661  0.815  0.041- 134 0.95
 222  0.018  0.245  0.202- 125 0.98
 223  0.437  0.102  0.760- 136 0.98
 224  0.172  0.354  0.885- 137 0.98
 225  0.583  0.162  0.753- 136 0.99
 226  0.848  0.008  0.040- 135 0.93
 227  0.196  0.283  0.932- 137 1.00
 228  0.408  0.455  0.083- 138 1.04
 229  0.335  0.564  0.049- 138 0.97
 230  0.555  0.500  0.830-  99 0.96
 231  0.243  0.592  0.204- 139 0.98
 232  0.147  0.252  0.758- 140 0.99
 233  0.103  0.595  0.222- 139 0.96
 234  0.994  0.208  0.773- 140 0.95
 235  0.243  0.722  0.883- 141 0.97
 236  0.861  0.903  0.076- 135 0.97
 237  0.093  0.253  0.004- 142 0.95
 238  0.104  0.093  0.975- 142 1.03
 239  0.369  0.203  0.223- 143 0.99
 240  0.298  0.102  0.259- 143 1.00
 241  0.401  0.803  0.122- 144 1.00
 242  0.519  0.808  0.091- 144 0.97
 243  0.496  0.097  0.024- 145 1.01
 244  0.499  0.264  0.012- 145 0.96
 245  0.303  0.551  0.973- 146 0.99
 246  0.172  0.569  0.996- 146 0.95
 
  LATTYP: Found a simple orthorhombic cell.
 ALAT       =     8.7818242399
 B/A-ratio  =     1.1547005384
 C/A-ratio  =     3.4310783653
  
  Lattice vectors:
  
 A1 = (   0.0000000000,  -8.7818242399,   0.0000000000)
 A2 = (  10.1403771778,   0.0000000000,   0.0000000000)
 A3 = (   0.0000000000,   0.0000000000,  30.1311271579)


Analysis of symmetry for initial positions (statically):
=====================================================================
 Subroutine PRICEL returns:
 Original cell was already a primitive cell.
 

 Routine SETGRP: Setting up the symmetry group for a 
 simple orthorhombic supercell.


 Subroutine GETGRP returns: Found  1 space group operations
 (whereof  1 operations were pure point group operations)
 out of a pool of  8 trial point group operations.


The static configuration has the point symmetry C_1 .


Analysis of symmetry for dynamics (positions and initial velocities):
=====================================================================
 Subroutine PRICEL returns:
 Original cell was already a primitive cell.
 

 Routine SETGRP: Setting up the symmetry group for a 
 simple orthorhombic supercell.


 Subroutine GETGRP returns: Found  1 space group operations
 (whereof  1 operations were pure point group operations)
 out of a pool of  8 trial point group operations.


The dynamic configuration has the point symmetry C_1 .


 Subroutine INISYM returns: Found  1 space group operations
 (whereof  1 operations are pure point group operations),
 and found     1 'primitive' translations


----------------------------------------------------------------------------------------

                                     Primitive cell                                     

  volume of cell :    2683.2073

  direct lattice vectors                    reciprocal lattice vectors
    10.140377178  0.000000000  0.000000000     0.098615661  0.000000000  0.000000000
     0.000000000  8.781824240  0.000000000     0.000000000  0.113871557  0.000000000
     0.000000000  0.000000000 30.131127158     0.000000000  0.000000000  0.033188271

  length of vectors
    10.140377178  8.781824240 30.131127158     0.098615661  0.113871557  0.033188271

  position of ions in fractional coordinates (direct lattice)
     0.696533263  0.134544938  0.324420987
     0.947507162  0.142605906  0.330829974
     0.202218316  0.131024030  0.330047726
     0.445750678  0.117381078  0.325389420
     0.797868744  0.385199010  0.329883112
     0.074169036  0.383972613  0.328148029
     0.319272148  0.370150883  0.329418144
     0.557876685  0.380654396  0.327030248
     0.947291194  0.620478143  0.325598838
     0.206769429  0.627811472  0.321583389
     0.446385763  0.613501233  0.328132763
     0.677734159  0.632948218  0.329406860
     0.064428471  0.875742874  0.325027668
     0.317450716  0.860135639  0.329787530
     0.562760132  0.878825377  0.327423198
     0.816343402  0.875471860  0.330148950
     0.565250178  0.207101617  0.395653967
     0.806156404  0.200464044  0.396938353
     0.075969265  0.207054930  0.397960552
     0.337994331  0.213350888  0.396058864
     0.681721190  0.453268010  0.395086448
     0.944345544  0.459382913  0.392945804
     0.186622250  0.463318314  0.394074206
     0.438144452  0.478973376  0.400539281
     0.819434017  0.696294965  0.398780302
     0.066403546  0.705885227  0.396480355
     0.318996024  0.714304890  0.399215069
     0.556374768  0.719174038  0.394250103
     0.948334547  0.959925839  0.397247004
     0.183066169  0.960604513  0.395561040
     0.436464041  0.957699650  0.397592162
     0.694427818  0.949486094  0.395066535
     0.562499787  0.041666628  0.465651349
     0.812500349  0.041666628  0.465651349
     0.062500042  0.041666628  0.465651349
     0.312500210  0.041666628  0.465651349
     0.687500068  0.291667190  0.465651349
     0.937499645  0.291667190  0.465651349
     0.187499929  0.291667190  0.465651349
     0.437500492  0.291667190  0.465651349
     0.812500349  0.541666500  0.465651349
     0.062500042  0.541666500  0.465651349
     0.312500210  0.541666500  0.465651349
     0.562499787  0.541666500  0.465651349
     0.937499645  0.791666949  0.465651349
     0.187499929  0.791666949  0.465651349
     0.437500492  0.791666949  0.465651349
     0.687500068  0.791666949  0.465651349
     0.687500068  0.125000224  0.534347750
     0.937499645  0.125000224  0.534347750
     0.187499929  0.125000224  0.534347750
     0.437500492  0.125000224  0.534347750
     0.812500349  0.374999534  0.534347750
     0.062500042  0.374999534  0.534347750
     0.312500210  0.374999534  0.534347750
     0.562499787  0.374999534  0.534347750
     0.937499645  0.624999983  0.534347750
     0.187499929  0.624999983  0.534347750
     0.437500492  0.624999983  0.534347750
     0.687500068  0.624999983  0.534347750
     0.062500042  0.875000432  0.534347750
     0.312500210  0.875000432  0.534347750
     0.562499787  0.875000432  0.534347750
     0.812500349  0.875000432  0.534347750
     0.571049765  0.201127915  0.601305086
     0.807515328  0.204869734  0.604205741
     0.062084180  0.201453588  0.602987731
     0.303425597  0.199874189  0.599194312
     0.692565955  0.452692959  0.603329570
     0.933916938  0.460747094  0.602018634
     0.181510014  0.454412419  0.604630550
     0.428421934  0.457616765  0.601398013
     0.810586219  0.724826622  0.605669343
     0.050710343  0.697877779  0.605456938
     0.299377424  0.701924775  0.599582615
     0.555904371  0.695986373  0.603933597
     0.935533248  0.953837127  0.605390562
     0.173578356  0.941163222  0.601802910
     0.430861685  0.950696549  0.603230005
     0.673780657  0.953615077  0.608433926
     0.553549429  0.040850624  0.675972057
     0.802509597  0.044756191  0.673383372
     0.054153607  0.047859760  0.673658834
     0.300251159  0.027031855  0.668624174
     0.684118537  0.290548971  0.672547027
     0.926102633  0.304985607  0.665142724
     0.183871859  0.271976520  0.673336908
     0.433211696  0.287436862  0.666832007
     0.801113199  0.542449936  0.668355349
     0.058748111  0.530451290  0.675075974
     0.309265617  0.546381921  0.666964760
     0.549913470  0.534851287  0.671226134
     0.926681507  0.804028845  0.679805302
     0.187373701  0.777005986  0.670827875
     0.424410249  0.791210324  0.665829721
     0.671687047  0.781139523  0.671113294
     0.605054417  0.599597516  0.163810334
     0.067202727  0.480203188  0.840944312
     0.573680830  0.403888748  0.844100517
     0.866154172  0.005176089  0.911648604
     0.727399965  0.273352089  0.949416856
     0.432307391  0.160266246  0.823118892
     0.851319418  0.517502956  0.775619839
     0.182258507  0.978567751  0.058677526
     0.111911025  0.251312249  0.106268179
     0.302039061  0.575502295  0.768958953
     0.067149277  0.057946275  0.845822988
     0.690668589  0.033450681  0.232790827
     0.791435058  0.998269808  0.800252174
     0.933518530  0.613993158  0.254652272
     0.091543735  0.561164727  0.095464069
     0.777739315  0.706933984  0.945623436
     0.056148996  0.910219765  0.965931339
     0.797027552  0.788224612  0.193483635
     0.818573102  0.498058249  0.884215179
     0.939076509  0.578834176  0.016628220
     0.513429620  0.809575528  0.926623151
     0.142872398  0.759056412  0.832975808
     0.765418274  0.340888171  0.055767247
     0.403251272  0.477635385  0.217425321
     0.931941666  0.800466943  0.747771561
     0.973494361  0.842964946  0.123995029
     0.226415641  0.890718123  0.159558916
     0.751967098  0.339582064  0.158456070
     0.071802655  0.161712414  0.190333072
     0.367118494  0.269582940  0.109531913
     0.596330875  0.939490449  0.845361671
     0.555119391  0.106822224  0.151430777
     0.558996958  0.673415892  0.793159840
     0.466885000  0.289623196  0.941561192
     0.377239419  0.040110117  0.975781618
     0.872071112  0.315927525  0.233041398
     0.067432699  0.931141387  0.254650281
     0.573509239  0.783479584  0.034462700
     0.797929885  0.934653185  0.053846973
     0.514395067  0.094575452  0.740533200
     0.240584739  0.305438816  0.902614756
     0.383264836  0.568419484  0.077225787
     0.161681363  0.652450999  0.203436797
     0.071612524  0.266346711  0.777979525
     0.272299536  0.683843110  0.911695067
     0.112889292  0.210312795  0.976315949
     0.298668378  0.126220927  0.226781095
     0.493880051  0.841306977  0.120697111
     0.522634406  0.198238994  0.036412511
     0.262567156  0.594266050  0.999837734
     0.683946946  0.658867661  0.174999096
     0.544774608  0.686812880  0.148939334
     0.094668767  0.582527031  0.837522601
     0.046628246  0.423484905  0.813862683
     0.190668450  0.561981186  0.096245653
     0.663820476  0.408191954  0.851863253
     0.910660406  0.020203547  0.938703682
     0.778435542  0.054371277  0.919544093
     0.744361858  0.294903420  0.980019760
     0.774574738  0.357719525  0.931989695
     0.257501270  0.025945151  0.043516460
     0.478286943  0.253744545  0.831183642
     0.726015401  0.970482871  0.822674169
     0.755535999  0.536659568  0.774003570
     0.012527147  0.088195685  0.871772897
     0.228065481  0.929658779  0.083275345
     0.074568627  0.210169317  0.136467513
     0.242976169  0.490222747  0.774249164
     0.334398804  0.545636063  0.739942448
     0.998592047  0.578713472  0.040020740
     0.100645171  0.138094315  0.827303933
     0.678063535  0.305741715  0.050461106
     0.626409638  0.061718384  0.209377166
     0.649578402  0.009267243  0.259938500
     0.356110028  0.153336023  0.839480709
     0.868654079  0.035349603  0.816982381
     0.874109498  0.686902839  0.238895809
     0.904041323  0.510803892  0.246292811
     0.872114503  0.477848325  0.746424118
     0.064413186  0.462994919  0.103212866
     0.800888355  0.804048203  0.932945517
     0.122875114  0.872644429  0.945112337
     0.066667343  0.861017004  0.993769660
     0.755011364  0.873298052  0.212031895
     0.859015384  0.832987521  0.173246423
     0.805397063  0.591575265  0.905007631
     0.910083505  0.484477927  0.877033237
     0.852656647  0.684321371  0.967922635
     0.859803324  0.538361947  0.030039334
     0.582728817  0.758015626  0.944617832
     0.440865258  0.746044309  0.915740717
     0.114954304  0.160869765  0.087529085
     0.123816893  0.875987698  0.835518030
     0.165660505  0.743550522  0.802133949
     0.783036948  0.320826280  0.086621386
     0.481560983  0.480946770  0.199395793
     0.878255300  0.873145464  0.763353454
     0.060174685  0.891608598  0.131308065
     0.897181618  0.702672911  0.763174238
     0.437222395  0.484533724  0.247702980
     0.002375188  0.745357664  0.116725139
     0.217768034  0.796918705  0.174163415
     0.257572273  0.964009273  0.181763861
     0.692534398  0.430166888  0.159569205
     0.159726800  0.155225152  0.205295340
     0.405125956  0.215910721  0.084293561
     0.680581193  0.261491227  0.151288068
     0.266638011  0.274652502  0.106196824
     0.529207140  0.016918553  0.842683377
     0.571461978  0.871932732  0.869486225
     0.470343451  0.166825247  0.151451686
     0.469790218  0.663445298  0.781633554
     0.539408930  0.999458627  0.140748800
     0.566359604  0.775079279  0.803707073
     0.278171112  0.574123310  0.905213398
     0.413540831  0.301538715  0.913361118
     0.559950572  0.301540993  0.933141328
     0.420076090  0.961574699  0.960136667
     0.831005578  0.322576486  0.204589094
     0.104433985  0.864808927  0.233440653
     0.828843923  0.241824471  0.250651094
     0.403123072  0.135168954  0.961036069
     0.020331887  0.012105202  0.239344846
     0.555705168  0.687287725  0.044596407
     0.660812698  0.814876249  0.041442525
     0.017900993  0.244790825  0.202353200
     0.437221409  0.102053853  0.760008077
     0.171609987  0.354044890  0.884646627
     0.583272190  0.161661172  0.753294090
     0.848491121  0.008106033  0.039848493
     0.196261930  0.283131378  0.931571522
     0.408271796  0.455327947  0.083296253
     0.334924425  0.563789466  0.049294538
     0.555294927  0.500214976  0.830476732
     0.243062951  0.591955596  0.204197804
     0.146503426  0.251641338  0.757595289
     0.103059283  0.595264703  0.222118143
     0.994183927  0.208249442  0.772709228
     0.242681308  0.721515237  0.883129923
     0.861102092  0.902982089  0.076143849
     0.093058866  0.253041958  0.004372057
     0.104350162  0.093146023  0.975101258
     0.368928092  0.203179881  0.223048410
     0.298160507  0.101794226  0.259230926
     0.400919998  0.803179363  0.121700392
     0.519217373  0.807693232  0.091105453
     0.496205409  0.096657024  0.023766353
     0.499344345  0.264330045  0.012126529
     0.303124819  0.550713595  0.972857731
     0.171810177  0.569450021  0.996132665

  ion indices of the primitive-cell ions
   primitive index   ion index
                 1           1
                 2           2
                 3           3
                 4           4
                 5           5
                 6           6
                 7           7
                 8           8
                 9           9
                10          10
                11          11
                12          12
                13          13
                14          14
                15          15
                16          16
                17          17
                18          18
                19          19
                20          20
                21          21
                22          22
                23          23
                24          24
                25          25
                26          26
                27          27
                28          28
                29          29
                30          30
                31          31
                32          32
                33          33
                34          34
                35          35
                36          36
                37          37
                38          38
                39          39
                40          40
                41          41
                42          42
                43          43
                44          44
                45          45
                46          46
                47          47
                48          48
                49          49
                50          50
                51          51
                52          52
                53          53
                54          54
                55          55
                56          56
                57          57
                58          58
                59          59
                60          60
                61          61
                62          62
                63          63
                64          64
                65          65
                66          66
                67          67
                68          68
                69          69
                70          70
                71          71
                72          72
                73          73
                74          74
                75          75
                76          76
                77          77
                78          78
                79          79
                80          80
                81          81
                82          82
                83          83
                84          84
                85          85
                86          86
                87          87
                88          88
                89          89
                90          90
                91          91
                92          92
                93          93
                94          94
                95          95
                96          96
                97          97
                98          98
                99          99
               100         100
               101         101
               102         102
               103         103
               104         104
               105         105
               106         106
               107         107
               108         108
               109         109
               110         110
               111         111
               112         112
               113         113
               114         114
               115         115
               116         116
               117         117
               118         118
               119         119
               120         120
               121         121
               122         122
               123         123
               124         124
               125         125
               126         126
               127         127
               128         128
               129         129
               130         130
               131         131
               132         132
               133         133
               134         134
               135         135
               136         136
               137         137
               138         138
               139         139
               140         140
               141         141
               142         142
               143         143
               144         144
               145         145
               146         146
               147         147
               148         148
               149         149
               150         150
               151         151
               152         152
               153         153
               154         154
               155         155
               156         156
               157         157
               158         158
               159         159
               160         160
               161         161
               162         162
               163         163
               164         164
               165         165
               166         166
               167         167
               168         168
               169         169
               170         170
               171         171
               172         172
               173         173
               174         174
               175         175
               176         176
               177         177
               178         178
               179         179
               180         180
               181         181
               182         182
               183         183
               184         184
               185         185
               186         186
               187         187
               188         188
               189         189
               190         190
               191         191
               192         192
               193         193
               194         194
               195         195
               196         196
               197         197
               198         198
               199         199
               200         200
               201         201
               202         202
               203         203
               204         204
               205         205
               206         206
               207         207
               208         208
               209         209
               210         210
               211         211
               212         212
               213         213
               214         214
               215         215
               216         216
               217         217
               218         218
               219         219
               220         220
               221         221
               222         222
               223         223
               224         224
               225         225
               226         226
               227         227
               228         228
               229         229
               230         230
               231         231
               232         232
               233         233
               234         234
               235         235
               236         236
               237         237
               238         238
               239         239
               240         240
               241         241
               242         242
               243         243
               244         244
               245         245
               246         246

----------------------------------------------------------------------------------------

 
 
 KPOINTS: KPOINTS created by Atomic Simulation Env

Automatic generation of k-mesh.
 Grid dimensions read from file:
 generate k-points for:    2    2    1

 Generating k-lattice:

  Cartesian coordinates                     Fractional coordinates (reciprocal lattice)
     0.049307831  0.000000000  0.000000000     0.500000000  0.000000000  0.000000000
     0.000000000  0.056935779  0.000000000     0.000000000  0.500000000  0.000000000
     0.000000000  0.000000000  0.033188271     0.000000000  0.000000000  1.000000000

  Length of vectors
     0.049307831  0.056935779  0.033188271

  Shift w.r.t. Gamma in fractional coordinates (k-lattice)
     0.500000000  0.500000000  0.000000000

 
 Subroutine IBZKPT returns following result:
 ===========================================
 
 Found      2 irreducible k-points:
 
 Following reciprocal coordinates:
            Coordinates               Weight
  0.250000  0.250000  0.000000      2.000000
 -0.250000  0.250000  0.000000      2.000000
 
 Following cartesian coordinates:
            Coordinates               Weight
  0.024654  0.028468  0.000000      2.000000
 -0.024654  0.028468  0.000000      2.000000
 


--------------------------------------------------------------------------------------------------------




 Dimension of arrays:
   k-points           NKPTS =      2   k-points in BZ     NKDIM =      2   number of bands    NBANDS=    874
   number of dos      NEDOS =    301   number of ions     NIONS =    246
   non local maximal  LDIM  =      6   non local SUM 2l+1 LMDIM =     18
   total plane-waves  NPLWV = ******
   max r-space proj   IRMAX =   8746   max aug-charges    IRDMAX=  24571
   dimension x,y,z NGX =    96 NGY =   84 NGZ =  280
   dimension x,y,z NGXF=   192 NGYF=  168 NGZF=  560
   support grid    NGXF=   192 NGYF=  168 NGZF=  560
   ions per type =              96  50 100
   NGX,Y,Z   is equivalent  to a cutoff of  15.74, 15.90, 15.45 a.u.
   NGXF,Y,Z  is equivalent  to a cutoff of  31.48, 31.80, 30.90 a.u.

 SYSTEM =  unknown system                          
 POSCAR =  Cu O  H                                 

 Startparameter for this run:
   NWRITE =      2    write-flag & timer
   PREC   = accura    normal or accurate (medium, high low for compatibility)
   ISTART =      0    job   : 0-new  1-cont  2-samecut
   ICHARG =      2    charge: 1-file 2-atom 10-const
   ISPIN  =      1    spin polarized calculation?
   LNONCOLLINEAR =      F non collinear calculations
   LSORBIT =      F    spin-orbit coupling
   INIWAV =      1    electr: 0-lowe 1-rand  2-diag
   LASPH  =      T    aspherical Exc in radial PAW
 Electronic Relaxation 1
   ENCUT  =  800.0 eV  58.80 Ry    7.67 a.u.  23.39 20.25 69.49*2*pi/ulx,y,z
   ENINI  =  800.0     initial cutoff
   ENAUG  = 1000.0 eV  augmentation charge cutoff
   NELM   =    160;   NELMIN=  2; NELMDL= -5     # of ELM steps 
   EDIFF  = 0.1E-06   stopping-criterion for ELM
   LREAL  =      T    real-space projection
   NLSPLINE    = F    spline interpolate recip. space projectors
   LCOMPAT=      F    compatible to vasp.4.4
   GGA_COMPAT  = T    GGA compatible to vasp.4.4-vasp.4.6
   LMAXPAW     = -100 max onsite density
   LMAXMIX     =    2 max onsite mixed and CHGCAR
   VOSKOWN=      0    Vosko Wilk Nusair interpolation
   ROPT   =   -0.00025  -0.00025  -0.00025
 Ionic relaxation
   EDIFFG = 0.1E-05   stopping-criterion for IOM
   NSW    =      0    number of steps for IOM
   NBLOCK =      1;   KBLOCK =      1    inner block; outer block 
   IBRION =     -1    ionic relax: 0-MD 1-quasi-New 2-CG
   NFREE  =      0    steps in history (QN), initial steepest desc. (CG)
   ISIF   =      2    stress and relaxation
   IWAVPR =     10    prediction:  0-non 1-charg 2-wave 3-comb
   ISYM   =      2    0-nonsym 1-usesym 2-fastsym
   LCORR  =      T    Harris-Foulkes like correction to forces

   POTIM  = 0.5000    time-step for ionic-motion
   TEIN   =    0.0    initial temperature
   TEBEG  =    0.0;   TEEND  =   0.0 temperature during run
   SMASS  =  -3.00    Nose mass-parameter (am)
   estimated Nose-frequenzy (Omega)   =  0.10E-29 period in steps = 0.13E+47 mass=  -0.235E-26a.u.
   SCALEE = 1.0000    scale energy and forces
   NPACO  =    256;   APACO  = 10.0  distance and # of slots for P.C.
   PSTRESS=    0.0 pullay stress

  Mass of Ions in am
   POMASS =  63.55 16.00  1.00
  Ionic Valenz
   ZVAL   =  11.00  6.00  1.00
  Atomic Wigner-Seitz radii
   RWIGS  =  -1.00 -1.00 -1.00
  virtual crystal weights 
   VCA    =   1.00  1.00  1.00
   NELECT =    1456.0000    total number of electrons
   NUPDOWN=      -1.0000    fix difference up-down

 DOS related values:
   EMIN   =  10.00;   EMAX   =-10.00  energy-range for DOS
   EFERMI =   0.00;   METHOD = LEGACY      
   ISMEAR =     0;   SIGMA  =   0.10  broadening in eV -4-tet -1-fermi 0-gaus

 Electronic relaxation 2 (details)
   IALGO  =     68    algorithm
   LDIAG  =      T    sub-space diagonalisation (order eigenvalues)
   LSUBROT=      F    optimize rotation matrix (better conditioning)
   TURBO    =      0    0=normal 1=particle mesh
   IRESTART =      0    0=no restart 2=restart with 2 vectors
   NREBOOT  =      0    no. of reboots
   NMIN     =      0    reboot dimension
   EREF     =   0.00    reference energy to select bands
   IMIX   =      4    mixing-type and parameters
     AMIX     =   0.40;   BMIX     =  1.00
     AMIX_MAG =   1.60;   BMIX_MAG =  1.00
     AMIN     =   0.10
     WC   =   100.;   INIMIX=   1;  MIXPRE=   1;  MAXMIX= -45

 Intra band minimization:
   WEIMIN = 0.0000     energy-eigenvalue tresh-hold
   EBREAK =  0.29E-10  absolut break condition
   DEPER  =   0.30     relativ break condition  

   TIME   =   0.40     timestep for ELM

  volume/ion in A,a.u.               =      10.91        73.61
  Fermi-wavevector in a.u.,A,eV,Ry     =   1.335295  2.523342 24.259360  1.783013
  Thomas-Fermi vector in A             =   2.464010
 
 Write flags
   LWAVE        =      T    write WAVECAR
   LDOWNSAMPLE  =      F    k-point downsampling of WAVECAR
   LCHARG       =      T    write CHGCAR
   LVTOT        =      F    write LOCPOT, total local potential
   LVHAR        =      T    write LOCPOT, Hartree potential only
   WRT_POTENTIAL=  hartree ionic  ! write potential to hdf5 file
   LELF         =      F    write electronic localiz. function (ELF)
   LORBIT       =      0    0 simple, 1 ext, 2 COOP (PROOUT), +10 PAW based schemes


 Dipole corrections
   LMONO      =      F    monopole corrections only (constant potential shift)
   LDIPOL     =      F    correct potential (dipole corrections)
   IDIPOL     =      0    1-x, 2-y, 3-z, 4-all directions 
   EPSILON    =  1.0000000 bulk dielectric constant
   LVACPOTAV  =      F  vacuum potentials using an averaging scheme for the charge density
   VACPOTFLAT =  0.1000000 required flatness to determine vacuum potential
 Exchange correlation treatment:
   METAGGA = R2SCAN    functional components
   XC_C    = 1    coefficients multiplying the functional components
   LIBXC   =     F    Libxc                    
   VOSKOWN =     0    Vosko Wilk Nusair interpolation
   LHFCALC =     F    Hartree Fock is set to
   LHFONE  =     F    Hartree Fock one center treatment
   AEXX    =    0.0000 exact exchange contribution

 Parameters of functionals:
   R2SCAN:
     No parameter
 
 Accuracy and mixing parameters for tau-dependent meta-GGA functionals:
   LMAXTAU = 6
   LMIXTAU = T
 
 Van der Waals corrections
   IVDW    =     0    specifies the selected vdW correction

 Linear response parameters
   LEPSILON=     F    determine dielectric tensor
   LRPA    =     F    only Hartree local field effects (RPA)
   LNABLA  =     F    use nabla operator in PAW spheres
   LVEL    =     F    velocity operator in full k-point grid
   CSHIFT  =0.1000    complex shift for real part using Kramers Kronig
   OMEGAMAX=  -1.0    maximum frequency
   DEG_THRESHOLD= 0.2000000E-02 threshold for treating states as degnerate
   RTIME   =   -0.100 relaxation time in fs
  (WPLASMAI=    0.000 imaginary part of plasma frequency in eV, 0.658/RTIME)
   DFIELD  = 0.0000000 0.0000000 0.0000000 field for delta impulse in time
 
  Optional k-point grid parameters
   LKPOINTS_OPT  =     F    use optional k-point grid
   KPOINTS_OPT_MODE=     1    mode for optional k-point grid
 
 Orbital magnetization related:
   ORBITALMAG=     F  switch on orbital magnetization
   LCHIMAG   =     F  perturbation theory with respect to B field
   DQ        =  0.001000  dq finite difference perturbation B field
   LLRAUG    =     F  two centre corrections for induced B field
   LBONE     =     F  B-component reconstruction in AE one-centre
   LVGVCALC  =     T  calculate vGv susceptibility
   LVGVAPPL  =     F  apply vGv susceptibility instead of pGv for G=0

 Random number generation:
   RANDOM_GENERATOR = DEFAULT
   PCG_SEED         = not used


--------------------------------------------------------------------------------------------------------


 Static calculation
 charge density and potential will be updated during run
 non-spin polarized calculation
 RMM-DIIS sequential band-by-band and
  variant of blocked Davidson during initial phase
 perform sub-space diagonalisation
    before iterative eigenvector-optimisation
 modified Broyden-mixing scheme, WC =      100.0
 initial mixing is a Kerker type mixing with AMIX =  0.4000 and BMIX =      1.0000
 Hartree-type preconditioning will be used
 using additional bands           146
 real space projection scheme for non local part
 use partial core corrections
 calculate Harris-corrections to forces 
   (improved forces if not selfconsistent)
 use gradient corrections 
 use of overlap-Matrix (Vanderbilt PP)
 Gauss-broadening in eV      SIGMA  =   0.10


--------------------------------------------------------------------------------------------------------


  energy-cutoff  :      800.00
  volume of cell :     2683.21
      direct lattice vectors                 reciprocal lattice vectors
    10.140377178  0.000000000  0.000000000     0.098615661  0.000000000  0.000000000
     0.000000000  8.781824240  0.000000000     0.000000000  0.113871557  0.000000000
     0.000000000  0.000000000 30.131127158     0.000000000  0.000000000  0.033188271

  length of vectors
    10.140377178  8.781824240 30.131127158     0.098615661  0.113871557  0.033188271


 
 k-points in units of 2pi/SCALE and weight: KPOINTS created by Atomic Simulation Env
   0.02465392  0.02846789  0.00000000       0.500
  -0.02465392  0.02846789  0.00000000       0.500
 
 k-points in reciprocal lattice and weights: KPOINTS created by Atomic Simulation Env
   0.25000000  0.25000000  0.00000000       0.500
  -0.25000000  0.25000000  0.00000000       0.500
 
 position of ions in fractional coordinates (direct lattice) 
   0.69653326  0.13454494  0.32442099
   0.94750716  0.14260591  0.33082997
   0.20221832  0.13102403  0.33004773
   0.44575068  0.11738108  0.32538942
   0.79786874  0.38519901  0.32988311
   0.07416904  0.38397261  0.32814803
   0.31927215  0.37015088  0.32941814
   0.55787668  0.38065440  0.32703025
   0.94729119  0.62047814  0.32559884
   0.20676943  0.62781147  0.32158339
   0.44638576  0.61350123  0.32813276
   0.67773416  0.63294822  0.32940686
   0.06442847  0.87574287  0.32502767
   0.31745072  0.86013564  0.32978753
   0.56276013  0.87882538  0.32742320
   0.81634340  0.87547186  0.33014895
   0.56525018  0.20710162  0.39565397
   0.80615640  0.20046404  0.39693835
   0.07596926  0.20705493  0.39796055
   0.33799433  0.21335089  0.39605886
   0.68172119  0.45326801  0.39508645
   0.94434554  0.45938291  0.39294580
   0.18662225  0.46331831  0.39407421
   0.43814445  0.47897338  0.40053928
   0.81943402  0.69629496  0.39878030
   0.06640355  0.70588523  0.39648036
   0.31899602  0.71430489  0.39921507
   0.55637477  0.71917404  0.39425010
   0.94833455  0.95992584  0.39724700
   0.18306617  0.96060451  0.39556104
   0.43646404  0.95769965  0.39759216
   0.69442782  0.94948609  0.39506653
   0.56249979  0.04166663  0.46565135
   0.81250035  0.04166663  0.46565135
   0.06250004  0.04166663  0.46565135
   0.31250021  0.04166663  0.46565135
   0.68750007  0.29166719  0.46565135
   0.93749964  0.29166719  0.46565135
   0.18749993  0.29166719  0.46565135
   0.43750049  0.29166719  0.46565135
   0.81250035  0.54166650  0.46565135
   0.06250004  0.54166650  0.46565135
   0.31250021  0.54166650  0.46565135
   0.56249979  0.54166650  0.46565135
   0.93749964  0.79166695  0.46565135
   0.18749993  0.79166695  0.46565135
   0.43750049  0.79166695  0.46565135
   0.68750007  0.79166695  0.46565135
   0.68750007  0.12500022  0.53434775
   0.93749964  0.12500022  0.53434775
   0.18749993  0.12500022  0.53434775
   0.43750049  0.12500022  0.53434775
   0.81250035  0.37499953  0.53434775
   0.06250004  0.37499953  0.53434775
   0.31250021  0.37499953  0.53434775
   0.56249979  0.37499953  0.53434775
   0.93749964  0.62499998  0.53434775
   0.18749993  0.62499998  0.53434775
   0.43750049  0.62499998  0.53434775
   0.68750007  0.62499998  0.53434775
   0.06250004  0.87500043  0.53434775
   0.31250021  0.87500043  0.53434775
   0.56249979  0.87500043  0.53434775
   0.81250035  0.87500043  0.53434775
   0.57104976  0.20112792  0.60130509
   0.80751533  0.20486973  0.60420574
   0.06208418  0.20145359  0.60298773
   0.30342560  0.19987419  0.59919431
   0.69256595  0.45269296  0.60332957
   0.93391694  0.46074709  0.60201863
   0.18151001  0.45441242  0.60463055
   0.42842193  0.45761677  0.60139801
   0.81058622  0.72482662  0.60566934
   0.05071034  0.69787778  0.60545694
   0.29937742  0.70192477  0.59958261
   0.55590437  0.69598637  0.60393360
   0.93553325  0.95383713  0.60539056
   0.17357836  0.94116322  0.60180291
   0.43086169  0.95069655  0.60323001
   0.67378066  0.95361508  0.60843393
   0.55354943  0.04085062  0.67597206
   0.80250960  0.04475619  0.67338337
   0.05415361  0.04785976  0.67365883
   0.30025116  0.02703186  0.66862417
   0.68411854  0.29054897  0.67254703
   0.92610263  0.30498561  0.66514272
   0.18387186  0.27197652  0.67333691
   0.43321170  0.28743686  0.66683201
   0.80111320  0.54244994  0.66835535
   0.05874811  0.53045129  0.67507597
   0.30926562  0.54638192  0.66696476
   0.54991347  0.53485129  0.67122613
   0.92668151  0.80402884  0.67980530
   0.18737370  0.77700599  0.67082787
   0.42441025  0.79121032  0.66582972
   0.67168705  0.78113952  0.67111329
   0.60505442  0.59959752  0.16381033
   0.06720273  0.48020319  0.84094431
   0.57368083  0.40388875  0.84410052
   0.86615417  0.00517609  0.91164860
   0.72739996  0.27335209  0.94941686
   0.43230739  0.16026625  0.82311889
   0.85131942  0.51750296  0.77561984
   0.18225851  0.97856775  0.05867753
   0.11191102  0.25131225  0.10626818
   0.30203906  0.57550229  0.76895895
   0.06714928  0.05794627  0.84582299
   0.69066859  0.03345068  0.23279083
   0.79143506  0.99826981  0.80025217
   0.93351853  0.61399316  0.25465227
   0.09154373  0.56116473  0.09546407
   0.77773931  0.70693398  0.94562344
   0.05614900  0.91021977  0.96593134
   0.79702755  0.78822461  0.19348363
   0.81857310  0.49805825  0.88421518
   0.93907651  0.57883418  0.01662822
   0.51342962  0.80957553  0.92662315
   0.14287240  0.75905641  0.83297581
   0.76541827  0.34088817  0.05576725
   0.40325127  0.47763538  0.21742532
   0.93194167  0.80046694  0.74777156
   0.97349436  0.84296495  0.12399503
   0.22641564  0.89071812  0.15955892
   0.75196710  0.33958206  0.15845607
   0.07180265  0.16171241  0.19033307
   0.36711849  0.26958294  0.10953191
   0.59633088  0.93949045  0.84536167
   0.55511939  0.10682222  0.15143078
   0.55899696  0.67341589  0.79315984
   0.46688500  0.28962320  0.94156119
   0.37723942  0.04011012  0.97578162
   0.87207111  0.31592753  0.23304140
   0.06743270  0.93114139  0.25465028
   0.57350924  0.78347958  0.03446270
   0.79792989  0.93465319  0.05384697
   0.51439507  0.09457545  0.74053320
   0.24058474  0.30543882  0.90261476
   0.38326484  0.56841948  0.07722579
   0.16168136  0.65245100  0.20343680
   0.07161252  0.26634671  0.77797953
   0.27229954  0.68384311  0.91169507
   0.11288929  0.21031279  0.97631595
   0.29866838  0.12622093  0.22678109
   0.49388005  0.84130698  0.12069711
   0.52263441  0.19823899  0.03641251
   0.26256716  0.59426605  0.99983773
   0.68394695  0.65886766  0.17499910
   0.54477461  0.68681288  0.14893933
   0.09466877  0.58252703  0.83752260
   0.04662825  0.42348490  0.81386268
   0.19066845  0.56198119  0.09624565
   0.66382048  0.40819195  0.85186325
   0.91066041  0.02020355  0.93870368
   0.77843554  0.05437128  0.91954409
   0.74436186  0.29490342  0.98001976
   0.77457474  0.35771953  0.93198969
   0.25750127  0.02594515  0.04351646
   0.47828694  0.25374455  0.83118364
   0.72601540  0.97048287  0.82267417
   0.75553600  0.53665957  0.77400357
   0.01252715  0.08819568  0.87177290
   0.22806548  0.92965878  0.08327534
   0.07456863  0.21016932  0.13646751
   0.24297617  0.49022275  0.77424916
   0.33439880  0.54563606  0.73994245
   0.99859205  0.57871347  0.04002074
   0.10064517  0.13809431  0.82730393
   0.67806354  0.30574171  0.05046111
   0.62640964  0.06171838  0.20937717
   0.64957840  0.00926724  0.25993850
   0.35611003  0.15333602  0.83948071
   0.86865408  0.03534960  0.81698238
   0.87410950  0.68690284  0.23889581
   0.90404132  0.51080389  0.24629281
   0.87211450  0.47784832  0.74642412
   0.06441319  0.46299492  0.10321287
   0.80088836  0.80404820  0.93294552
   0.12287511  0.87264443  0.94511234
   0.06666734  0.86101700  0.99376966
   0.75501136  0.87329805  0.21203190
   0.85901538  0.83298752  0.17324642
   0.80539706  0.59157526  0.90500763
   0.91008350  0.48447793  0.87703324
   0.85265665  0.68432137  0.96792264
   0.85980332  0.53836195  0.03003933
   0.58272882  0.75801563  0.94461783
   0.44086526  0.74604431  0.91574072
   0.11495430  0.16086976  0.08752909
   0.12381689  0.87598770  0.83551803
   0.16566050  0.74355052  0.80213395
   0.78303695  0.32082628  0.08662139
   0.48156098  0.48094677  0.19939579
   0.87825530  0.87314546  0.76335345
   0.06017468  0.89160860  0.13130806
   0.89718162  0.70267291  0.76317424
   0.43722240  0.48453372  0.24770298
   0.00237519  0.74535766  0.11672514
   0.21776803  0.79691870  0.17416341
   0.25757227  0.96400927  0.18176386
   0.69253440  0.43016689  0.15956920
   0.15972680  0.15522515  0.20529534
   0.40512596  0.21591072  0.08429356
   0.68058119  0.26149123  0.15128807
   0.26663801  0.27465250  0.10619682
   0.52920714  0.01691855  0.84268338
   0.57146198  0.87193273  0.86948622
   0.47034345  0.16682525  0.15145169
   0.46979022  0.66344530  0.78163355
   0.53940893  0.99945863  0.14074880
   0.56635960  0.77507928  0.80370707
   0.27817111  0.57412331  0.90521340
   0.41354083  0.30153872  0.91336112
   0.55995057  0.30154099  0.93314133
   0.42007609  0.96157470  0.96013667
   0.83100558  0.32257649  0.20458909
   0.10443399  0.86480893  0.23344065
   0.82884392  0.24182447  0.25065109
   0.40312307  0.13516895  0.96103607
   0.02033189  0.01210520  0.23934485
   0.55570517  0.68728772  0.04459641
   0.66081270  0.81487625  0.04144253
   0.01790099  0.24479082  0.20235320
   0.43722141  0.10205385  0.76000808
   0.17160999  0.35404489  0.88464663
   0.58327219  0.16166117  0.75329409
   0.84849112  0.00810603  0.03984849
   0.19626193  0.28313138  0.93157152
   0.40827180  0.45532795  0.08329625
   0.33492443  0.56378947  0.04929454
   0.55529493  0.50021498  0.83047673
   0.24306295  0.59195560  0.20419780
   0.14650343  0.25164134  0.75759529
   0.10305928  0.59526470  0.22211814
   0.99418393  0.20824944  0.77270923
   0.24268131  0.72151524  0.88312992
   0.86110209  0.90298209  0.07614385
   0.09305887  0.25304196  0.00437206
   0.10435016  0.09314602  0.97510126
   0.36892809  0.20317988  0.22304841
   0.29816051  0.10179423  0.25923093
   0.40092000  0.80317936  0.12170039
   0.51921737  0.80769323  0.09110545
   0.49620541  0.09665702  0.02376635
   0.49934435  0.26433005  0.01212653
   0.30312482  0.55071360  0.97285773
   0.17181018  0.56945002  0.99613267
 
 position of ions in cartesian coordinates  (Angst):
   7.06311000  1.18155000  9.77517000
   9.60808000  1.25234000  9.96828000
   2.05057000  1.15063000  9.94471000
   4.52008000  1.03082000  9.80435000
   8.09069000  3.38275000  9.93975000
   0.75210200  3.37198000  9.88747000
   3.23754000  3.25060000  9.92574000
   5.65708000  3.34284000  9.85379000
   9.60589000  5.44893000  9.81066000
   2.09672000  5.51333000  9.68967000
   4.52652000  5.38766000  9.88701000
   6.87248000  5.55844000  9.92540000
   0.65332900  7.69062000  9.79345000
   3.21907000  7.55356000  9.93687000
   5.70660000  7.71769000  9.86563000
   8.27803000  7.68824000  9.94776000
   5.73185000  1.81873000 11.92150000
   8.17473000  1.76044000 11.96020000
   0.77035700  1.81832000 11.99100000
   3.42739000  1.87361000 11.93370000
   6.91291000  3.98052000 11.90440000
   9.57602000  4.03422000 11.83990000
   1.89242000  4.06878000 11.87390000
   4.44295000  4.20626000 12.06870000
   8.30937000  6.11474000 12.01570000
   0.67335700  6.19896000 11.94640000
[...]
      0.63377      0.36591     14.03060         0.065324     -0.028573      0.170612
      3.16887      0.36591     14.03060        -0.082386      0.025444     -0.152450
      6.97151      2.56137     14.03060        -0.002800     -0.001288     -0.071314
      9.50660      2.56137     14.03060         0.005600      0.011853     -0.249011
      1.90132      2.56137     14.03060         0.174358      0.066997     -0.090682
      4.43642      2.56137     14.03060         0.162816      0.039956      0.101650
      8.23906      4.75682     14.03060         0.010115     -0.237965     -0.022191
      0.63377      4.75682     14.03060        -0.017517     -0.072736     -0.200197
      3.16887      4.75682     14.03060        -0.281495      0.006894      0.221576
      5.70396      4.75682     14.03060         0.275947      0.122397      0.132704
      9.50660      6.95228     14.03060         0.052009     -0.011481      0.041203
      1.90132      6.95228     14.03060        -0.089304      0.036476     -0.016768
      4.43642      6.95228     14.03060         0.150457      0.017909      0.224904
      6.97151      6.95228     14.03060         0.019264     -0.054634     -0.143941
      6.97151      1.09773     16.10050         0.138234     -0.183249     -0.074840
      9.50660      1.09773     16.10050        -0.095169     -0.094730      0.134344
      1.90132      1.09773     16.10050        -0.184268     -0.177284     -0.314277
      4.43642      1.09773     16.10050         0.071281     -0.040720     -0.094398
      8.23906      3.29318     16.10050        -0.024300     -0.076264     -0.042504
      0.63377      3.29318     16.10050         0.007073      0.023664      0.036876
      3.16887      3.29318     16.10050        -0.141592      0.053678     -0.174906
      5.70396      3.29318     16.10050         0.015026      0.045677      0.048975
      9.50660      5.48864     16.10050        -0.093873      0.121163      0.029824
      1.90132      5.48864     16.10050        -0.346913     -0.110275     -0.187109
      4.43642      5.48864     16.10050         0.019057      0.045531     -0.165478
      6.97151      5.48864     16.10050         0.059408      0.074078      0.234658
      0.63377      7.68410     16.10050        -0.234160     -0.133045     -0.119615
      3.16887      7.68410     16.10050        -0.027323      0.103303     -0.141863
      5.70396      7.68410     16.10050         0.064353     -0.004569      0.189491
      8.23906      7.68410     16.10050        -0.100065      0.129634      0.245656
      5.79066      1.76627     18.11800        -0.977114      0.234907      0.464759
      8.18851      1.79913     18.20540         0.322037     -0.385922     -0.481836
      0.62956      1.76913     18.16870        -0.273086      0.091498     -0.069536
      3.07685      1.75526     18.05440         0.493311      0.051681      0.813554
      7.02288      3.97547     18.17900        -0.681243      0.222444     -0.248767
      9.47027      4.04620     18.13950         0.083095     -0.016654     -0.247284
      1.84058      3.99057     18.21820        -0.173577     -0.316217     -0.175822
      4.34436      4.01871     18.12080         0.430633     -0.478357     -0.005055
      8.21965      6.36530     18.24950        -0.196510     -0.774451     -0.166929
      0.51422      6.12864     18.24310         0.147792      0.325618      0.189663
      3.03580      6.16418     18.06610         0.393499      0.175533      0.243198
      5.63708      6.11203     18.19720         0.229807      0.215152     -0.430734
      9.48666      8.37643     18.24110        -0.274691      0.282538      0.082592
      1.76015      8.26513     18.13300         0.474384      0.531446      0.351618
      4.36910      8.34885     18.17600         0.086991      0.493972     -0.348520
      6.83239      8.37448     18.33280         0.300096      0.131270     -0.484169
      5.61320      0.35874     20.36780        -0.146567     -0.172599     -0.419524
      8.13775      0.39304     20.28980         0.140402      0.062710     -0.253781
      0.54914      0.42030     20.29810        -0.072512     -0.330102     -0.294636
      3.04466      0.23739     20.14640        -0.136273      0.418933     -0.075618
      6.93722      2.55155     20.26460        -0.159982      0.171145     -0.264240
      9.39103      2.67833     20.04150         0.396610     -0.788934      1.020005
      1.86453      2.38845     20.28840         0.184548      0.809782     -0.361641
      4.39293      2.52422     20.09240        -0.349936      0.000869     -0.032727
      8.12359      4.76370     20.13830         0.243641      0.182399      0.332943
      0.59573      4.65833     20.34080         0.039349      0.208372     -0.438555
      3.13607      4.79823     20.09640        -0.128121     -0.810555      0.353011
      5.57633      4.69697     20.22480         0.279252     -0.070443     -0.076774
      9.39690      7.06084     20.48330         0.103657     -0.517893     -0.170515
      1.90004      6.82353     20.21280        -0.703885      0.481908     -0.022168
      4.30368      6.94827     20.06220         0.437518     -0.373244      0.633274
      6.81116      6.85983     20.22140         0.100934      0.217794      0.249429
      6.13548      5.26556      4.93579        -0.671153      2.094887     -0.627851
      0.68146      4.21706     25.33860        -0.196859     -2.410824      1.049554
      5.81734      3.54688     25.43370        -1.342029     -0.796502     -0.055186
      8.78313      0.04546     27.46900        -2.884047      0.697880     -0.489673
      7.37611      2.40053     28.60700         0.947873      1.287198     -1.410224
      4.38376      1.40743     24.80150         1.466530     -0.455491     -1.525653
      8.63270      4.54462     23.37030        -0.945104      0.410033      0.018010
      1.84817      8.59361      1.76802         1.038971      0.312941      0.104322
      1.13482      2.20698      3.20198        -1.277370     -0.806531      1.243588
      3.06279      5.05396     23.16960        -0.445030     -0.514621      0.240111
      0.68092      0.50887     25.48560        -0.535965     -1.092274      0.878112
      7.00364      0.29376      7.01425         0.911163      0.411579     -2.040533
      8.02545      8.76663     24.11250         1.945603      0.792029     -0.332458
      9.46623      5.39198      7.67296        -0.366008     -0.003943     -0.140785
      0.92829      4.92805      2.87644         1.607016      2.227575     -0.652930
      7.88657      6.20817     28.49270         1.557332     -0.703441      1.568417
      0.56937      7.99339     29.10460         0.257720      0.419203     -1.106694
      8.08216      6.92205      5.82988        -0.981201      0.389928      1.718332
      8.30064      4.37386     26.64240        -1.186372      0.677846      1.391627
      9.52259      5.08322      0.50103        -1.580618      0.144294     -2.012196
      5.20637      7.10955     27.92020         0.955853      0.240881      0.018715
      1.44878      6.66590     25.09850         0.087643      2.688445     -0.009625
      7.76163      2.99362      1.68033         1.017101      0.629579     -0.386002
      4.08912      4.19451      6.55127        -0.352990     -0.523212      0.556479
      9.45024      7.02956     22.53120        -0.255152     -2.104620      0.692731
      9.87160      7.40277      3.73611         0.478968      2.519680      0.597919
      2.29594      7.82213      4.80769         0.702469      2.221929     -1.154279
      7.62523      2.98215      4.77446        -2.230597     -0.529672     -0.963380
      0.72811      1.42013      5.73495        -0.476994      0.117508     -0.400872
      3.72272      2.36743      3.30032        -0.788040      0.316785     -0.060717
      6.04702      8.25044     25.47170        -0.120196     -1.016110      0.330752
      5.62912      0.93809      4.56278        -0.516993      0.429047      0.838630
      5.66844      5.91382     23.89880        -0.243199     -1.163621     -0.472873
      4.73439      2.54342     28.37030        -0.420708      0.783860     -1.816679
      3.82535      0.35224     29.40140        -1.016252      0.677465      1.164736
      8.84313      2.77442      7.02180         1.911650      1.194108      0.990044
      0.68379      8.17712      7.67290        -0.655407      0.718903      1.241025
      5.81560      6.88038      1.03840        -0.878947      2.401197     -1.003832
      8.09131      8.20796      1.62247        -0.488091     -1.269993      0.981206
      5.21616      0.83054     22.31310         0.693884      0.581314      0.703605
      2.43962      2.68231     27.19680        -0.978640      0.509516      0.077418
      3.88645      4.99176      2.32690         0.664084     -2.113064      0.643937
      1.63951      5.72971      6.12978         0.939290     -0.692611      0.018420
      0.72618      2.33901     23.44140         1.465355      0.851752      0.835425
      2.76122      6.00539     27.47040         0.237299     -0.963646     -0.415933
      1.14474      1.84693     29.41750         0.094351     -1.534500     -1.244531
      3.02861      1.10845      6.83317         1.033059      0.143669      0.468936
      5.00813      7.38821      3.63674        -1.822406     -1.269850      0.184968
      5.29971      1.74090      1.09715        -0.261459     -1.029666     -0.216149
      2.66253      5.21874     30.12624         0.759318     -0.577465     -0.937695
      6.93548      5.78606      5.27292        -1.081948     -0.257561     -0.392793
      5.52422      6.03147      4.48771         2.024359     -2.025490      1.101211
      0.95998      5.11565     25.23550        -0.107374      1.209714     -0.529714
      0.47283      3.71897     24.52260         0.211510      0.748811      0.230403
      1.93345      4.93522      2.89999        -1.303981     -0.188515      0.010887
      6.73139      3.58467     25.66760         1.417913      0.206278      0.505809
      9.23444      0.17742     28.28420         1.060890     -0.041280      1.131678
      7.89363      0.47748     27.70690         1.670114     -0.446914     -0.842905
      7.54811      2.58979     29.52910         0.183163      0.067473      0.446627
      7.85448      3.14143     28.08190        -0.713246     -1.222798      0.636099
      2.61116      0.22785      1.31120        -0.560932     -0.333534     -0.361711
      4.85001      2.22834     25.04450         0.334940      0.625378      0.214219
      7.36207      8.52261     24.78810        -0.294169     -0.078809      0.142328
      7.66142      4.71285     23.32160         0.649633     -0.131224      0.157214
      0.12703      0.77452     26.26750         0.666823      0.003650     -1.033987
      2.31267      8.16410      2.50918        -0.481381      0.055235     -0.011591
      0.75615      1.84567      4.11192         1.170602      0.594644     -1.206767
      2.46387      4.30505     23.32900         0.069994      0.331632      0.408814
      3.39093      4.79168     22.29530         0.273442      0.253503     -0.497504
     10.12610      5.08216      1.20587         1.658990      0.144556      2.027327
      1.02058      1.21272     24.92760        -0.298372      0.819927      0.200294
      6.87582      2.68497      1.52045        -0.881771     -0.645571      0.144895
      6.35203      0.54200      6.30877         0.094065     -0.070514      0.410139
      6.58697      0.08138      7.83224        -1.139727     -0.329540      1.200141
      3.61109      1.34657     25.29450        -2.247637      0.111143      1.614167
      8.80848      0.31043     24.61660        -0.747657     -0.495190     -0.367809
      8.86380      6.03226      7.19820         0.503858     -0.403853     -0.039809
      9.16732      4.48579      7.42108        -0.115328      0.054443      0.174381
      8.84357      4.19638     22.49060         0.009894     -0.204757     -0.256565
      0.65317      4.06594      3.10992        -0.155595     -1.854975      0.445212
      8.12131      7.06101     28.11070         0.320495      0.558296     -0.207274
      1.24600      7.66341     28.47730        -0.305869     -0.119516      0.811947
      0.67603      7.56130     29.94340         0.498097     -0.494602      0.628481
      7.65610      7.66915      6.38876         0.596108     -0.650106     -1.033126
      8.71074      7.31515      5.22011         0.517502      0.220469     -0.562886
      8.16703      5.19511     27.26890         0.478642     -1.505288     -1.000561
      9.22859      4.25460     26.42600         0.512575      0.332704     -0.344882
      8.64626      6.00959     29.16460        -1.693047      0.425057     -1.241035
      8.71873      4.72780      0.90512        -0.065787     -0.336338     -0.040156
      5.90909      6.65676     28.46240        -1.207003      0.081613     -0.758284
      4.47054      6.55163     27.59230         0.293999     -0.312381      0.784022
      1.16568      1.41273      2.63735        -0.062431     -0.080324      0.002170
      1.25555      7.69277     25.17510        -0.074070     -2.081085     -0.010553
      1.67986      6.52973     24.16920         0.200504      0.081205     -0.055885
      7.94029      2.81744      2.61000        -0.074338      0.038369      0.278287
      4.88321      4.22359      6.00802         0.413150      0.525058     -0.451580
      8.90584      7.66781     23.00070        -0.604477      1.151086      0.415708
      0.61019      7.82995      3.95646        -1.139509     -0.255977      0.098703
      9.09776      6.17075     22.99530         0.904230      0.886768     -1.052441
      4.43360      4.25509      7.46357        -0.268193      0.076644     -0.182271
      0.02409      6.54560      3.51706         0.519869     -2.315160     -0.550614
      2.20825      6.99840      5.24774        -0.503297     -1.511665      0.992119
      2.61188      8.46576      5.47675        -0.015331     -0.337558     -0.423356
      7.02256      3.77765      4.80800         0.667307     -0.011978     -0.155931
      1.61969      1.36316      6.18578        -0.547640      0.607754     -0.125905
      4.10813      1.89609      2.53986         0.019400      0.156168     -0.006395
      6.90135      2.29637      4.55848         1.406289      0.356189      0.488206
      2.70381      2.41195      3.19983         1.179563     -0.329062      0.304937
      5.36636      0.14858     25.39100        -0.377228      0.522418     -0.195786
      5.79484      7.65716     26.19860         0.038184      0.169371      0.536949
      4.76946      1.46503      4.56341         1.141805     -1.120820     -0.634151
      4.76385      5.82626     23.55150         0.225682     -0.040452      0.157022
      5.46981      8.77707      4.24092        -0.329590      1.223130      0.079682
      5.74310      6.80661     24.21660         0.182913      1.032209      0.421714
      2.82076      5.04185     27.27510        -0.127573      0.538495      0.217025
      4.19346      2.64806     27.52060         0.638868      0.020474      1.643694
      5.67811      2.64808     28.11660        -0.232850     -0.265787      0.454935
      4.25973      8.44438     28.93000         0.808104     -1.265607     -0.721392
      8.42671      2.83281      6.16450        -1.332146     -0.194206     -1.351717
      1.05900      7.59460      7.03383         0.404522     -0.955718     -0.965319
      8.40479      2.12366      7.55240        -0.652471     -0.748921      0.352413
      4.08782      1.18703     28.95710         0.132160     -0.163759     -0.078411
      0.20617      0.10631      7.21173         0.255688     -0.175003     -0.205321
      5.63506      6.03564      1.34374        -0.354271     -2.839503      0.766557
      6.70089      7.15610      1.24871         1.152921      0.206525      0.140270
      0.18152      2.14971      6.09713         0.398349     -0.460039      0.407408
      4.43359      0.89622     22.89990         0.569705      0.106688     -0.107727
      1.74019      3.10916     26.65540         0.337145     -0.096830     -0.032457
      5.91460      1.41968     22.69760        -0.853975     -0.767555     -0.209143
      8.60402      0.07119      1.20068         0.695208      1.742379     -1.367817
      1.99017      2.48641     28.06930         0.339415     -0.123455     -0.524135
      4.14003      3.99861      2.50981        -0.831524      2.135618      0.107038
      3.39626      4.95110      1.48530         0.076491      0.158465     -0.360981
      5.63090      4.39280     25.02320        -0.020416      0.753679     -0.407121
      2.46475      5.19845      6.15271         0.008566      0.127823      0.137155
      1.48560      2.20987     22.82720        -1.272396     -0.476160     -0.208665
      1.04506      5.22751      6.69267        -0.659139      0.184028      0.265434
     10.08140      1.82881     23.28260        -0.257572     -0.600591     -1.092914
      2.46088      6.33622     26.60970        -0.248422      0.193824     -0.471881
      8.73190      7.92983      2.29430        -0.031018     -0.434997      0.599169
      0.94365      2.22217      0.13174        -0.286006     -0.123577      0.720999
      1.05815      0.81799     29.38090         0.080589      1.898242      0.568986
      3.74107      1.78429      6.72070        -0.801260     -0.368660      0.187277
      3.02346      0.89394      7.81092         0.069782      0.190618     -0.781237
      4.06548      7.05338      3.66697         1.119041      0.812556      0.322846
      5.26506      7.09302      2.74511         0.410398      0.362893     -0.592205
      5.03171      0.84883      0.71611         0.349460      1.045755      0.223056
      5.06354      2.32130      0.36539        -0.212170      0.113256     -0.251067
      3.07380      4.83627     29.31330        -0.302077      0.554131      1.071281
      1.74222      5.00081     30.01460        -0.707187     -0.121685     -0.034217
 -----------------------------------------------------------------------------------
    total drift:                               -0.008196     -0.010090     -0.001061


--------------------------------------------------------------------------------------------------------



  FREE ENERGIE OF THE ION-ELECTRON SYSTEM (eV)
  ---------------------------------------------------
  free  energy   TOTEN  =     -1811.38147054 eV

  energy  without entropy=    -1811.17334825  energy(sigma->0) =    -1811.27740940
 


--------------------------------------------------------------------------------------------------------


    POTLOK:  cpu time     11.9470: real time     11.9654


--------------------------------------------------------------------------------------------------------


 writing wavefunctions
     LOOP+:  cpu time    708.2531: real time    709.4159
    4ORBIT:  cpu time      0.0000: real time      0.0000

 total amount of memory used by VASP MPI-rank0  3314068. kBytes
=======================================================================

   base      :      30000. kBytes
   nonlr-proj:     188989. kBytes
   fftplans  :     312780. kBytes
   grid      :     814785. kBytes
   one-center:       3825. kBytes
   wavefun   :    1963689. kBytes
 
  
  
 General timing and accounting informations for this job:
 ========================================================
  
                  Total CPU time used (sec):      776.448
                            User time (sec):      757.007
                          System time (sec):       19.441
                         Elapsed time (sec):      778.206
  
                   Maximum memory used (kb):     4910516.
                   Average memory used (kb):          N/A
  
                          Minor page faults:      4581710
                          Major page faults:         3995
                 Voluntary context switches:        22959
