 vasp.6.4.3 19Mar24 (build Sep  4 2024 12:23:58) complex                         
 executed on              LinuxNV date 2025.10.06  23:00:50
 running    4 mpi-ranks, with    1 threads/rank, on    1 nodes
 distrk:  each k-point on    2 cores,    2 groups
 distr:  one band on NCORE=   1 cores,    2 groups
 OpenACC runtime initialized ...    4 GPUs detected


--------------------------------------------------------------------------------------------------------


 INCAR:
   ENCUT = 800.000000
   SIGMA = 0.100000
   EDIFF = 1.00e-08
   ALGO = A
   METAGGA = R2SCAN
   PREC = Accurate
   IBRION = -1
   ICHARG = 1
   IDIPOL = 3
   ISMEAR = 0
   ISTART = 1
   KPAR = 2
   NELM = 300
   NPAR = 2
   NCORE = 1
   DIPOL = 0.5 0.5 0.5
   LASPH = .TRUE.
   LDIPOL = .TRUE.
   LVHAR = .TRUE.
   LMIXTAU = .TRUE.
   LVACPOTAV = .TRUE.
   LREAL = Auto

 POTCAR:    PAW_PBE Cu 22Jun2005                  
 POTCAR:    PAW_PBE O_h 06Feb2004                 
 POTCAR:    PAW_PBE H_h 06Feb2004                 
 POTCAR:    PAW_PBE Cu 22Jun2005                  
   VRHFIN =Cu: d10 p1                                                                               
   LEXCH  = PE                                                                                      
   EATOM  =  1390.9808 eV,  102.2342 Ry                                                             
                                                                                                    
   TITEL  = PAW_PBE Cu 22Jun2005                                                                    
   LULTRA =        F    use ultrasoft PP ?                                                          
   IUNSCR =        1    unscreen: 0-lin 1-nonlin 2-no                                               
   RPACOR =    2.000    partial core radius                                                         
   POMASS =   63.546; ZVAL   =   11.000    mass and valenz                                          
   RCORE  =    2.300    outmost cutoff radius                                                       
   RWIGS  =    2.200; RWIGS  =    1.164    wigner-seitz radius (au A)                               
   ENMAX  =  295.446; ENMIN  =  221.585 eV                                                          
   ICORE  =        3    local potential                                                             
   LCOR   =        T    correct aug charges                                                         
   LPAW   =        T    paw PP                                                                      
   EAUG   =  586.980                                                                                
   DEXC   =    0.000                                                                                
   RMAX   =    2.344    core radius for proj-oper                                                   
   RAUG   =    1.300    factor for augmentation sphere                                              
   RDEP   =    2.302    radius for radial grids                                                     
   RDEPT  =    1.771    core radius for aug-charge                                                  
                                                                                                    
   Atomic configuration                                                                             
    9 entries                                                                                       
     n  l   j            E        occ.                                                              
     1  0  0.50     -8850.2468   2.0000                                                             
     2  0  0.50     -1062.3498   2.0000                                                             
     2  1  1.50      -916.8226   6.0000                                                             
     3  0  0.50      -114.6929   2.0000                                                             
     3  1  1.50       -72.1325   6.0000                                                             
     3  2  2.50        -5.0394  10.0000                                                             
     4  0  0.50        -4.6097   1.0000                                                             
     4  1  0.50        -4.0817   0.0000                                                             
     4  3  2.50        -1.3606   0.0000                                                             
   Description                                                                                      
     l       E           TYP  RCUT    TYP  RCUT                                                     
     2     -5.0393973     23  2.200                                                                 
     2     10.8846608     23  2.200                                                                 
     0     -4.6097109     23  2.200                                                                 
     0      8.2520465     23  2.200                                                                 
     1     -2.7211652     23  2.200                                                                 
     1     21.7055443     23  2.200                                                                 
     3      2.7211652     23  2.300                                                                 
  local pseudopotential read in
  partial core-charges read in
  partial kinetic energy density read in
  atomic valenz-charges read in
  non local Contribution for L=            2  read in
    real space projection operators read in
  non local Contribution for L=            2  read in
    real space projection operators read in
  non local Contribution for L=            0  read in
    real space projection operators read in
  non local Contribution for L=            0  read in
    real space projection operators read in
  non local Contribution for L=            1  read in
    real space projection operators read in
  non local Contribution for L=            1  read in
    real space projection operators read in
    PAW grid and wavefunctions read in
 
   number of l-projection  operators is LMAX  =            6
   number of lm-projection operators is LMMAX =           18
 
 POTCAR:    PAW_PBE O_h 06Feb2004                 
   VRHFIN =O: s2p4                                                                                  
   LEXCH  = PE                                                                                      
   EATOM  =   432.3788 eV,   31.7789 Ry                                                             
                                                                                                    
   TITEL  = PAW_PBE O_h 06Feb2004                                                                   
   LULTRA =        F    use ultrasoft PP ?                                                          
   IUNSCR =        1    unscreen: 0-lin 1-nonlin 2-no                                               
   RPACOR =    0.800    partial core radius                                                         
   POMASS =   16.000; ZVAL   =    6.000    mass and valenz                                          
   RCORE  =    1.100    outmost cutoff radius                                                       
   RWIGS  =    1.400; RWIGS  =    0.741    wigner-seitz radius (au A)                               
   ENMAX  =  700.000; ENMIN  =  500.000 eV                                                          
   ICORE  =        2    local potential                                                             
   LCOR   =        T    correct aug charges                                                         
   LPAW   =        T    paw PP                                                                      
   EAUG   =  888.804                                                                                
   DEXC   =    0.000                                                                                
   RMAX   =    1.128    core radius for proj-oper                                                   
   RAUG   =    1.300    factor for augmentation sphere                                              
   RDEP   =    1.125    radius for radial grids                                                     
   RDEPT  =    1.088    core radius for aug-charge                                                  
                                                                                                    
   Atomic configuration                                                                             
    4 entries                                                                                       
     n  l   j            E        occ.                                                              
     1  0  0.50      -514.6923   2.0000                                                             
     2  0  0.50       -23.9615   2.0000                                                             
     2  1  0.50        -9.0305   4.0000                                                             
     3  2  1.50        -9.5241   0.0000                                                             
   Description                                                                                      
     l       E           TYP  RCUT    TYP  RCUT                                                     
     0    -23.9615319     23  1.100                                                                 
     0    -25.3221145     23  1.100                                                                 
     1     -9.0304911     23  1.100                                                                 
     1     -5.4802209     23  1.100                                                                 
     2     -9.5240782      7  1.100                                                                 
  local pseudopotential read in
  partial core-charges read in
  partial kinetic energy density read in
  atomic valenz-charges read in
  non local Contribution for L=            0  read in
    real space projection operators read in
  non local Contribution for L=            0  read in
    real space projection operators read in
  non local Contribution for L=            1  read in
    real space projection operators read in
  non local Contribution for L=            1  read in
    real space projection operators read in
    PAW grid and wavefunctions read in
 
   number of l-projection  operators is LMAX  =            4
   number of lm-projection operators is LMMAX =            8
 
 POTCAR:    PAW_PBE H_h 06Feb2004                 
   VRHFIN =H: ultrasoft test                                                                        
   LEXCH  = PE                                                                                      
   EATOM  =    12.4884 eV,    0.9179 Ry                                                             
                                                                                                    
   TITEL  = PAW_PBE H_h 06Feb2004                                                                   
   LULTRA =        F    use ultrasoft PP ?                                                          
   IUNSCR =        0    unscreen: 0-lin 1-nonlin 2-no                                               
   RPACOR =    0.000    partial core radius                                                         
   POMASS =    1.000; ZVAL   =    1.000    mass and valenz                                          
   RCORE  =    0.800    outmost cutoff radius                                                       
   RWIGS  =    0.700; RWIGS  =    0.370    wigner-seitz radius (au A)                               
   ENMAX  =  700.000; ENMIN  =  350.000 eV                                                          
   RCLOC  =    0.701    cutoff for local pot                                                        
   LCOR   =        T    correct aug charges                                                         
   LPAW   =        T    paw PP                                                                      
   EAUG   = 1000.000                                                                                
   RMAX   =    0.819    core radius for proj-oper                                                   
   RAUG   =    1.000    factor for augmentation sphere                                              
   RDEP   =    0.817    radius for radial grids                                                     
   RDEPT  =    0.817    core radius for aug-charge                                                  
                                                                                                    
   Atomic configuration                                                                             
    2 entries                                                                                       
     n  l   j            E        occ.                                                              
     1  0  0.50        -6.4927   1.0000                                                             
     2  1  0.50        -3.4015   0.0000                                                             
   Description                                                                                      
     l       E           TYP  RCUT    TYP  RCUT                                                     
     0     -6.4927493     23  0.800                                                                 
     0      6.8029130     23  0.800                                                                 
     1     -6.8029130     23  0.800                                                                 
  local pseudopotential read in
  atomic valenz-charges read in
  non local Contribution for L=            0  read in
    real space projection operators read in
  non local Contribution for L=            0  read in
    real space projection operators read in
  non local Contribution for L=            1  read in
    real space projection operators read in
    PAW grid and wavefunctions read in
 
   number of l-projection  operators is LMAX  =            3
   number of lm-projection operators is LMMAX =            5
 
 Optimization of the real space projectors (new method)

 maximal supplied QI-value         = 16.25
 optimisation between [QCUT,QGAM] = [ 14.46, 28.93] = [ 58.58,234.33] Ry 
 Optimized for a Real-space Cutoff    1.35 Angstroem

   l    n(q)    QCUT    max X(q) W(low)/X(q) W(high)/X(q)  e(spline) 
   2     11    14.464     4.610    0.56E-04    0.10E-03    0.52E-06
   2     11    14.464     8.522    0.88E-04    0.16E-03    0.84E-06
   0     12    14.464    51.609    0.44E-04    0.29E-04    0.63E-06
   0     12    14.464    27.747    0.38E-04    0.27E-04    0.60E-06
   1     11    14.464    20.408    0.64E-04    0.66E-04    0.14E-06
   1     11    14.464    13.425    0.56E-04    0.59E-04    0.13E-06
 Optimization of the real space projectors (new method)

 maximal supplied QI-value         = 34.20
 optimisation between [QCUT,QGAM] = [ 14.37, 28.73] = [ 57.79,231.16] Ry 
 Optimized for a Real-space Cutoff    0.98 Angstroem

   l    n(q)    QCUT    max X(q) W(low)/X(q) W(high)/X(q)  e(spline) 
   0      8    14.366   280.207    0.54E-04    0.14E-03    0.22E-06
   0      8    14.366   228.978    0.55E-04    0.14E-03    0.22E-06
   1      8    14.366    86.127    0.24E-03    0.25E-03    0.26E-06
   1      8    14.366    65.368    0.24E-03    0.24E-03    0.26E-06
 Optimization of the real space projectors (new method)

 maximal supplied QI-value         = 47.24
 optimisation between [QCUT,QGAM] = [ 14.17, 28.82] = [ 56.25,232.56] Ry 
 Optimized for a Real-space Cutoff    0.95 Angstroem

   l    n(q)    QCUT    max X(q) W(low)/X(q) W(high)/X(q)  e(spline) 
   0      8    14.173    34.671    0.25E-03    0.45E-03    0.25E-06
   0      8    14.173    17.046    0.24E-03    0.43E-03    0.25E-06
   1      8    14.173     1.978    0.58E-04    0.22E-03    0.31E-06
 -----------------------------------------------------------------------------
|                                                                             |
|               ----> ADVICE to this user running VASP <----                  |
|                                                                             |
|     You enforced a specific xc type in the INCAR file but a different       |
|     type was found in the POTCAR file.                                      |
|     I HOPE YOU KNOW WHAT YOU ARE DOING!                                     |
|                                                                             |
 -----------------------------------------------------------------------------

  PAW_PBE Cu 22Jun2005                  :
 energy of atom  1       EATOM=-1390.9808
 kinetic energy error for atom=    0.0007 (will be added to EATOM!!)
  PAW_PBE O_h 06Feb2004                 :
 energy of atom  2       EATOM= -432.3788
 kinetic energy error for atom=    0.0500 (will be added to EATOM!!)
  PAW_PBE H_h 06Feb2004                 :
 energy of atom  3       EATOM=  -12.4884
 kinetic energy error for atom=    0.0035 (will be added to EATOM!!)
 
 
 POSCAR: Cu O  H
  positions in cartesian coordinates
  No initial velocities read in


 exchange-correlation table for R2SCAN
   RHO(1)=    0.500       N(1)  =     2000
   RHO(2)=  100.500       N(2)  =     4000
 


--------------------------------------------------------------------------------------------------------


 ion  position               nearest neighbor table
   1  0.697  0.135  0.381-   5 2.43  18 2.52   4 2.55   2 2.55   8 2.58  16 2.58  17 2.60  15 2.63
                            32 2.68
   2  0.948  0.143  0.385-  19 2.47   6 2.48  18 2.51   1 2.55  29 2.56   3 2.58   5 2.62  13 2.63
                            16 2.70
   3  0.202  0.131  0.385-   7 2.41   4 2.48  30 2.48  19 2.50  20 2.52   6 2.57   2 2.58  13 2.65
                            14 2.65
   4  0.446  0.117  0.382-  15 2.41   3 2.48  20 2.54   1 2.55  17 2.56   7 2.57   8 2.58  31 2.59
                            14 2.61
   5  0.798  0.385  0.385-  21 2.37   1 2.43   8 2.44  12 2.49  22 2.50   9 2.57  18 2.59   2 2.62

   6  0.074  0.384  0.384-  23 2.39   9 2.44  22 2.45   2 2.48   7 2.49  10 2.54   3 2.57  19 2.62

   7  0.319  0.370  0.384-   3 2.41   8 2.42  20 2.44   6 2.49  11 2.50  23 2.50  10 2.55   4 2.57
                            24 2.64
   8  0.558  0.381  0.383-  11 2.34   7 2.42   5 2.44  21 2.49  12 2.53  17 2.57   4 2.58   1 2.58
                            24 2.67
   9  0.947  0.620  0.382- 110 2.14   6 2.44  22 2.47  13 2.54   5 2.57  26 2.57  16 2.61  10 2.63
                            25 2.64  12 2.74
  10  0.207  0.628  0.379-  14 2.34  11 2.44   6 2.54   7 2.55  13 2.61  23 2.63   9 2.63  27 2.71
                            26 2.75
  11  0.446  0.614  0.383-   8 2.34  12 2.35  10 2.44  28 2.46  24 2.48   7 2.50  14 2.53  15 2.61
                            27 2.65
  12  0.678  0.633  0.384-  11 2.35  28 2.43  15 2.45   5 2.49   8 2.53  21 2.53  16 2.55  25 2.60
                             9 2.74
  13  0.064  0.876  0.381- 133 2.18  16 2.52   9 2.54  30 2.55  14 2.57  29 2.58  10 2.61  26 2.62
                             2 2.63   3 2.65
  14  0.317  0.860  0.385-  10 2.34  27 2.45  15 2.49  31 2.52  11 2.53  30 2.56  13 2.57   4 2.61
                             3 2.65
  15  0.563  0.879  0.383-   4 2.41  28 2.45  12 2.45  14 2.49  32 2.51  31 2.57  16 2.57  11 2.61
                             1 2.63
  16  0.816  0.875  0.385-  32 2.40  13 2.52  29 2.54  12 2.55  15 2.57   1 2.58  25 2.60   9 2.61
                             2 2.70
  17  0.565  0.207  0.429-  20 2.31  18 2.44  21 2.46  31 2.55  37 2.56  33 2.56   4 2.56   8 2.57
                            40 2.58   1 2.60  32 2.61  24 2.72
  18  0.806  0.200  0.430-  17 2.44  32 2.48  34 2.50   2 2.51   1 2.52  37 2.53  21 2.55  29 2.56
                            38 2.59   5 2.59  22 2.67  19 2.74
  19  0.076  0.207  0.430-  30 2.42  39 2.45   2 2.47   3 2.50  35 2.51  23 2.52  29 2.53  38 2.59
                            22 2.59   6 2.62  20 2.66  18 2.74
  20  0.338  0.213  0.429-  17 2.31  40 2.43   7 2.44  31 2.46   3 2.52   4 2.54  24 2.55  36 2.60
                            19 2.66  23 2.68  39 2.68  30 2.72
  21  0.682  0.453  0.428-   5 2.37  17 2.46  24 2.49   8 2.49  12 2.53  25 2.55  18 2.55  37 2.56
                            44 2.57  41 2.62  28 2.66  22 2.66
  22  0.944  0.459  0.427-  25 2.44   6 2.45  23 2.46   9 2.47  26 2.50   5 2.50  19 2.59  42 2.60
                            38 2.64  21 2.66  41 2.67  18 2.67
  23  0.187  0.463  0.428-   6 2.39  26 2.46  22 2.46   7 2.50  19 2.52  24 2.56  27 2.59  42 2.59
                            43 2.60  10 2.63  39 2.63  20 2.68
  24  0.438  0.479  0.432-  27 2.39  44 2.40  43 2.40  28 2.43  11 2.48  21 2.49  20 2.55  40 2.56
                            23 2.56   7 2.64   8 2.67  17 2.72
  25  0.819  0.696  0.431-  41 2.43  22 2.44  45 2.49  26 2.51  21 2.55  48 2.56  32 2.56  12 2.60
                            16 2.60   9 2.64  29 2.66  28 2.68
  26  0.066  0.706  0.429-  23 2.46  22 2.50  25 2.51  30 2.53  29 2.53  46 2.53  42 2.53  27 2.56
                             9 2.57  45 2.57  13 2.62  10 2.75
  27  0.319  0.714  0.431-  24 2.39  28 2.41  47 2.43  31 2.45  14 2.45  46 2.50  43 2.51  26 2.56
                            30 2.57  23 2.59  11 2.65  10 2.71
  28  0.556  0.719  0.428-  27 2.41  31 2.42  12 2.43  24 2.43  15 2.45  32 2.46  11 2.46  47 2.55
                            48 2.61  44 2.66  21 2.66  25 2.68
  29  0.948  0.960  0.430-  30 2.38  35 2.47  19 2.53  26 2.53  16 2.54  45 2.54  18 2.56   2 2.56
                            32 2.58  34 2.58  13 2.58  25 2.66
  30  0.183  0.961  0.429-  29 2.38  19 2.42   3 2.48  26 2.53  35 2.54  13 2.55  14 2.56  27 2.57
                            31 2.57  46 2.58  36 2.59  20 2.72
  31  0.436  0.958  0.430-  28 2.42  27 2.45  20 2.46  36 2.52  47 2.52  14 2.52  33 2.53  17 2.55
                            15 2.57  30 2.57   4 2.59  32 2.62
  32  0.694  0.949  0.428-  16 2.40  28 2.46  18 2.48  15 2.51  48 2.54  25 2.56  34 2.57  29 2.58
                            17 2.61  31 2.62  33 2.64   1 2.68
  33  0.562  0.042  0.476-  31 2.53  47 2.54  36 2.54  40 2.54  48 2.54  52 2.54  63 2.54  37 2.54
                            49 2.54  34 2.54  17 2.56  32 2.64
  34  0.813  0.042  0.476-  18 2.50  35 2.54  45 2.54  38 2.54  48 2.54  50 2.54  64 2.54  37 2.54
                            49 2.54  33 2.54  32 2.57  29 2.58
  35  0.062  0.042  0.476-  29 2.47  19 2.51  34 2.54  45 2.54  46 2.54  61 2.54  38 2.54  50 2.54
                            39 2.54  51 2.54  36 2.54  30 2.54
  36  0.313  0.042  0.476-  31 2.52  33 2.54  47 2.54  46 2.54  62 2.54  40 2.54  39 2.54  52 2.54
                            51 2.54  35 2.54  30 2.59  20 2.60
  37  0.688  0.292  0.476-  18 2.53  38 2.54  40 2.54  41 2.54  44 2.54  53 2.54  56 2.54  33 2.54
                            34 2.54  49 2.54  17 2.56  21 2.56
  38  0.937  0.292  0.476-  41 2.54  42 2.54  37 2.54  53 2.54  34 2.54  54 2.54  39 2.54  35 2.54
                            50 2.54  19 2.59  18 2.59  22 2.64
  39  0.187  0.292  0.476-  19 2.45  42 2.54  43 2.54  54 2.54  55 2.54  38 2.54  35 2.54  36 2.54
                            51 2.54  40 2.54  23 2.63  20 2.68
  40  0.438  0.292  0.476-  20 2.43  44 2.54  37 2.54  43 2.54  56 2.54  33 2.54  55 2.54  36 2.54
                            52 2.54  39 2.54  24 2.56  17 2.58
  41  0.813  0.542  0.476-  25 2.43  38 2.54  42 2.54  37 2.54  45 2.54  57 2.54  48 2.54  53 2.54
                            60 2.54  44 2.54  21 2.62  22 2.67
  42  0.062  0.542  0.476-  26 2.53  41 2.54  38 2.54  39 2.54  45 2.54  57 2.54  46 2.54  54 2.54
                            58 2.54  43 2.54  23 2.59  22 2.60
  43  0.313  0.542  0.476-  24 2.40  27 2.51  44 2.54  40 2.54  39 2.54  47 2.54  46 2.54  55 2.54
                            59 2.54  58 2.54  42 2.54  23 2.60
  44  0.562  0.542  0.476-  24 2.40  40 2.54  43 2.54  37 2.54  47 2.54  59 2.54  48 2.54  56 2.54
                            60 2.54  41 2.54  21 2.57  28 2.66
  45  0.937  0.792  0.476-  25 2.49  34 2.54  48 2.54  35 2.54  41 2.54  64 2.54  46 2.54  42 2.54
                            61 2.54  57 2.54  29 2.54  26 2.57
  46  0.187  0.792  0.476-  27 2.50  26 2.53  35 2.54  36 2.54  45 2.54  42 2.54  43 2.54  58 2.54
                            61 2.54  62 2.54  47 2.54  30 2.58
  47  0.438  0.792  0.476-  27 2.43  31 2.52  33 2.54  48 2.54  44 2.54  36 2.54  63 2.54  43 2.54
                            59 2.54  62 2.54  46 2.54  28 2.55
  48  0.688  0.792  0.476-  45 2.54  47 2.54  33 2.54  34 2.54  41 2.54  44 2.54  60 2.54  63 2.54
                            64 2.54  32 2.54  25 2.56  28 2.61
  49  0.688  0.125  0.522-  65 2.43  66 2.53  50 2.54  52 2.54  53 2.54  56 2.54  63 2.54  64 2.54
                            37 2.54  34 2.54  33 2.54  80 2.70
  50  0.937  0.125  0.522-  67 2.51  53 2.54  54 2.54  64 2.54  49 2.54  61 2.54  34 2.54  51 2.54
                            35 2.54  38 2.54  66 2.58  77 2.62
  51  0.187  0.125  0.522-  68 2.37  67 2.52  54 2.54  55 2.54  61 2.54  62 2.54  50 2.54  39 2.54
                            35 2.54  36 2.54  52 2.54  78 2.60
  52  0.438  0.125  0.522-  68 2.47  65 2.52  56 2.54  63 2.54  49 2.54  55 2.54  62 2.54  33 2.54
                            40 2.54  36 2.54  51 2.54  79 2.58
  53  0.813  0.375  0.522-  70 2.50  69 2.50  50 2.54  54 2.54  49 2.54  38 2.54  57 2.54  37 2.54
                            60 2.54  41 2.54  56 2.54  66 2.58
  54  0.062  0.375  0.522-  70 2.53  53 2.54  50 2.54  51 2.54  38 2.54  39 2.54  57 2.54  58 2.54
                            42 2.54  55 2.54  71 2.54  67 2.57
  55  0.313  0.375  0.522-  72 2.45  68 2.49  56 2.54  52 2.54  51 2.54  40 2.54  39 2.54  59 2.54
                            58 2.54  43 2.54  54 2.54  71 2.60
  56  0.562  0.375  0.522-  65 2.53  52 2.54  55 2.54  49 2.54  40 2.54  59 2.54  37 2.54  60 2.54
                            44 2.54  53 2.54  72 2.54  69 2.55
  57  0.937  0.625  0.522-  70 2.50  74 2.51  60 2.54  53 2.54  64 2.54  41 2.54  58 2.54  54 2.54
                            61 2.54  42 2.54  45 2.54  73 2.65
  58  0.187  0.625  0.522-  75 2.37  57 2.54  54 2.54  55 2.54  61 2.54  62 2.54  46 2.54  42 2.54
                            43 2.54  59 2.54  71 2.59  74 2.63
  59  0.438  0.625  0.522-  76 2.50  72 2.50  75 2.51  60 2.54  56 2.54  63 2.54  44 2.54  55 2.54
                            62 2.54  47 2.54  43 2.54  58 2.54
  60  0.688  0.625  0.522-  57 2.54  59 2.54  53 2.54  56 2.54  63 2.54  64 2.54  48 2.54  44 2.54
                            41 2.54  76 2.56  69 2.57  73 2.64
  61  0.062  0.875  0.522-  78 2.40  64 2.54  50 2.54  51 2.54  35 2.54  57 2.54  45 2.54  58 2.54
                            46 2.54  62 2.54  77 2.59  74 2.65
  62  0.313  0.875  0.522-  79 2.49  75 2.49  63 2.54  52 2.54  51 2.54  36 2.54  59 2.54  58 2.54
                            47 2.54  46 2.54  61 2.54  78 2.54
  63  0.562  0.875  0.522-  52 2.54  62 2.54  59 2.54  49 2.54  47 2.54  33 2.54  60 2.54  48 2.54
                            64 2.54  79 2.56  80 2.59  76 2.62
  64  0.813  0.875  0.522-  73 2.52  61 2.54  50 2.54  57 2.54  49 2.54  45 2.54  34 2.54  60 2.54
                            48 2.54  63 2.54  77 2.57  80 2.73
  65  0.571  0.201  0.566-  66 2.40  80 2.42  49 2.43  52 2.52  69 2.53  56 2.53  88 2.54  85 2.56
                            79 2.62  81 2.66  72 2.68  68 2.71
  66  0.808  0.205  0.568-  86 2.36  65 2.40  69 2.47  82 2.51  85 2.52  49 2.53  77 2.56  50 2.58
                            53 2.58  67 2.58  70 2.59  80 2.59
  67  0.062  0.201  0.568-  68 2.45  86 2.50  50 2.51  51 2.52  83 2.52  77 2.53  87 2.53  71 2.53
                            78 2.55  54 2.57  66 2.58  70 2.62
  68  0.303  0.200  0.565-  51 2.37  67 2.45  52 2.47  55 2.49  79 2.54  88 2.54  71 2.56  84 2.58
                            72 2.60  87 2.62  78 2.63  65 2.71
  69  0.693  0.453  0.568-  89 2.38  70 2.45  66 2.47  53 2.50  85 2.53  65 2.53  76 2.55  56 2.55
                            60 2.57  92 2.61  73 2.67  72 2.68
  70  0.934  0.461  0.567-  86 2.34  74 2.40  69 2.45  57 2.50  53 2.50  71 2.51  89 2.51  54 2.53
                            66 2.59  90 2.61  67 2.62  73 2.64
  71  0.182  0.454  0.569-  91 2.42  75 2.49  72 2.51  70 2.51  74 2.52  67 2.53  54 2.54  90 2.55
                            68 2.56  58 2.59  55 2.60  87 2.62
  72  0.428  0.458  0.566-  91 2.44  55 2.45  76 2.46  88 2.47  59 2.50  71 2.51  75 2.51  92 2.53
                            56 2.54  68 2.60  65 2.68  69 2.68
  73  0.811  0.725  0.569-  77 2.38  80 2.44  74 2.45  96 2.47  89 2.48  64 2.52  76 2.60  93 2.62
                            60 2.64  70 2.64  57 2.65  69 2.67
  74  0.051  0.698  0.569-  70 2.40  73 2.45  78 2.48  94 2.51  57 2.51  71 2.52  75 2.53  77 2.53
                            90 2.56  58 2.63  61 2.65  93 2.73
  75  0.299  0.702  0.565-  58 2.37  91 2.45  78 2.46  71 2.49  62 2.49  95 2.49  59 2.51  72 2.51
                            94 2.52  74 2.53  79 2.56  76 2.61
  76  0.556  0.696  0.568-  95 2.44  96 2.46  72 2.46  92 2.47  59 2.50  69 2.55  60 2.56  80 2.56
                            79 2.57  73 2.60  75 2.61  63 2.62
  77  0.936  0.954  0.569-  73 2.38  78 2.42  83 2.52  67 2.53  74 2.53  66 2.56  64 2.57  82 2.58
                            61 2.59  93 2.60  50 2.62  80 2.66
  78  0.174  0.941  0.567-  61 2.40  77 2.42  75 2.46  74 2.48  84 2.50  94 2.53  62 2.54  67 2.55
                            51 2.60  79 2.61  68 2.63  83 2.65
  79  0.431  0.951  0.568-  95 2.35  84 2.47  80 2.47  62 2.49  68 2.54  63 2.56  75 2.56  76 2.57
                            52 2.58  78 2.61  65 2.62  81 2.64
  80  0.674  0.954  0.571-  65 2.42  96 2.42  73 2.44  79 2.47  82 2.48  81 2.49  76 2.56  66 2.59
                            63 2.59  77 2.66  49 2.70  64 2.73
  81  0.554  0.041  0.616- 136 2.04  80 2.49  88 2.50  82 2.53  85 2.56  95 2.57  96 2.58  84 2.58
                            79 2.64  65 2.66
  82  0.803  0.045  0.615-  93 2.47  85 2.47  80 2.48  66 2.51  81 2.53  83 2.55  77 2.58  86 2.62
                            96 2.67
  83  0.054  0.048  0.615-  87 2.37  84 2.51  93 2.51  77 2.52  67 2.52  82 2.55  86 2.62  78 2.65
                            94 2.74
  84  0.300  0.027  0.612-  95 2.43  87 2.46  79 2.47  94 2.48  78 2.50  83 2.51  81 2.58  68 2.58
                            88 2.66
  85  0.684  0.291  0.614-  86 2.47  82 2.47  89 2.51  66 2.52  69 2.53  92 2.54  88 2.55  65 2.56
                            81 2.56
  86  0.926  0.305  0.609-  70 2.34  66 2.36  90 2.41  89 2.44  85 2.47  67 2.50  83 2.62  82 2.62
                            87 2.64
  87  0.184  0.272  0.615-  83 2.37  84 2.46  67 2.53  88 2.54  90 2.60  71 2.62  68 2.62  86 2.64
                            91 2.73
  88  0.433  0.287  0.610-  72 2.47  92 2.48  81 2.50  65 2.54  87 2.54  68 2.54  85 2.55  91 2.60
                            84 2.66
  89  0.801  0.542  0.611-  69 2.38  86 2.44  96 2.47  73 2.48  85 2.51  70 2.51  92 2.55  90 2.62
                            93 2.65
  90  0.059  0.530  0.616-  86 2.41  94 2.53  71 2.55  91 2.56  74 2.56  87 2.60  70 2.61  89 2.62
                            93 2.75
  91  0.309  0.546  0.610-  94 2.38  71 2.42  72 2.44  92 2.45  95 2.45  75 2.45  90 2.56  88 2.60
                            87 2.73
  92  0.550  0.535  0.613-  91 2.45  76 2.47  88 2.48  96 2.49  72 2.53  85 2.54  89 2.55  95 2.59
                            69 2.61
  93  0.927  0.804  0.619- 121 2.05  82 2.47  83 2.51  77 2.60  96 2.61  73 2.62  89 2.65  94 2.67
                            74 2.73  90 2.75
  94  0.187  0.777  0.613-  91 2.38  95 2.41  84 2.48  74 2.51  75 2.52  90 2.53  78 2.53  93 2.67
                            83 2.74
  95  0.424  0.791  0.610-  79 2.35  94 2.41  84 2.43  76 2.44  91 2.45  75 2.49  96 2.51  81 2.57
                            92 2.59
  96  0.672  0.781  0.613-  80 2.42  76 2.46  73 2.47  89 2.47  92 2.49  95 2.51  81 2.58  93 2.61
                            82 2.67
  97  0.605  0.600  0.273- 147 1.01 148 1.08
  98  0.067  0.480  0.727- 149 0.95 150 0.98
  99  0.574  0.404  0.729- 152 0.94 230 0.96
 100  0.866  0.005  0.774- 153 0.94 154 1.02
 101  0.727  0.273  0.800- 155 0.96 156 1.03
 102  0.432  0.160  0.715- 171 0.92 158 0.97
 103  0.851  0.518  0.683- 175 0.97 160 0.99
 104  0.182  0.979  0.203- 162 0.97 157 0.98
 105  0.112  0.251  0.235- 188 0.97 163 1.05
 106  0.302  0.576  0.679- 165 0.97 164 0.97
 107  0.067  0.058  0.730- 167 0.96 161 0.99
 108  0.691  0.033  0.320- 170 0.94 169 0.99
 109  0.791  0.998  0.700- 159 0.98 172 0.99
 110  0.934  0.614  0.334- 174 0.99 173 1.00   9 2.14
 111  0.092  0.561  0.228- 176 0.93 151 1.01
 112  0.778  0.707  0.797- 177 0.96 184 1.03
 113  0.056  0.910  0.811- 179 0.95 178 0.98
 114  0.797  0.788  0.293- 181 0.96 180 1.03
 115  0.819  0.498  0.756- 183 0.96 182 1.04
 116  0.939  0.579  0.175- 166 0.93 185 0.97
 117  0.513  0.810  0.784- 187 0.98 186 1.00
 118  0.143  0.759  0.722- 190 0.97 189 1.05
 119  0.765  0.341  0.201- 168 0.95 191 0.96
 120  0.403  0.478  0.309- 192 0.96 196 0.98
 121  0.932  0.800  0.665- 193 0.96 195 1.04  93 2.05
 122  0.973  0.843  0.247- 197 0.93 194 1.00
 123  0.226  0.891  0.271- 198 0.94 199 0.98
 124  0.752  0.340  0.270- 200 1.00 203 1.02
 125  0.072  0.162  0.291- 222 0.98 201 1.00
 126  0.367  0.270  0.237- 202 0.97 204 1.02
 127  0.596  0.939  0.730- 205 0.97 206 0.97
 128  0.555  0.107  0.265- 207 1.01 209 1.01
 129  0.559  0.673  0.695- 210 0.95 208 0.97
 130  0.467  0.290  0.794- 213 0.98 212 1.01
 131  0.377  0.040  0.817- 214 0.94 218 0.98
 132  0.872  0.316  0.320- 217 0.95 215 0.95
 133  0.067  0.931  0.334- 216 0.94 219 0.97  13 2.18
 134  0.574  0.783  0.187- 220 0.92 221 0.95
 135  0.798  0.935  0.200- 226 0.93 236 0.97
 136  0.514  0.095  0.660- 223 0.98 225 0.99  81 2.04
 137  0.241  0.305  0.768- 224 0.98 227 1.00
 138  0.383  0.568  0.215- 229 0.97 228 1.04
 139  0.162  0.652  0.300- 233 0.96 231 0.98
 140  0.072  0.266  0.685- 234 0.95 232 0.99
 141  0.272  0.684  0.774- 235 0.97 211 0.98
 142  0.113  0.210  0.818- 237 0.95 238 1.03
 143  0.299  0.126  0.316- 239 0.99 240 1.00
 144  0.494  0.841  0.245- 242 0.97 241 1.00
 145  0.523  0.198  0.188- 244 0.96 243 1.01
 146  0.263  0.594  0.833- 246 0.95 245 0.99
 147  0.684  0.659  0.281-  97 1.01
 148  0.545  0.687  0.263-  97 1.08
 149  0.095  0.583  0.725-  98 0.95
 150  0.047  0.423  0.709-  98 0.98
 151  0.191  0.562  0.228- 111 1.01
 152  0.664  0.408  0.734-  99 0.94
 153  0.911  0.020  0.792- 100 0.94
 154  0.778  0.054  0.780- 100 1.02
 155  0.744  0.295  0.820- 101 0.96
 156  0.775  0.358  0.788- 101 1.03
 157  0.258  0.026  0.193- 104 0.98
 158  0.478  0.254  0.720- 102 0.97
 159  0.726  0.970  0.715- 109 0.98
 160  0.756  0.537  0.682- 103 0.99
 161  0.013  0.088  0.748- 107 0.99
 162  0.228  0.930  0.220- 104 0.97
 163  0.075  0.210  0.255- 105 1.05
 164  0.243  0.490  0.682- 106 0.97
 165  0.334  0.546  0.659- 106 0.97
 166  0.999  0.579  0.191- 116 0.93
 167  0.101  0.138  0.718- 107 0.96
 168  0.678  0.306  0.198- 119 0.95
 169  0.626  0.062  0.304- 108 0.99
 170  0.650  0.009  0.338- 108 0.94
 171  0.356  0.153  0.726- 102 0.92
 172  0.869  0.035  0.711- 109 0.99
 173  0.874  0.687  0.324- 110 1.00
 174  0.904  0.511  0.329- 110 0.99
 175  0.872  0.478  0.664- 103 0.97
 176  0.064  0.463  0.233- 111 0.93
 177  0.801  0.804  0.789- 112 0.96
 178  0.123  0.873  0.797- 113 0.98
 179  0.067  0.861  0.829- 113 0.95
 180  0.755  0.873  0.306- 114 1.03
 181  0.859  0.833  0.280- 114 0.96
 182  0.805  0.592  0.770- 115 1.04
 183  0.910  0.484  0.751- 115 0.96
 184  0.853  0.684  0.812- 112 1.03
 185  0.860  0.538  0.184- 116 0.97
 186  0.583  0.758  0.796- 117 1.00
 187  0.441  0.746  0.777- 117 0.98
 188  0.115  0.161  0.222- 105 0.97
 189  0.124  0.876  0.723- 118 1.05
 190  0.166  0.744  0.701- 118 0.97
 191  0.783  0.321  0.222- 119 0.96
 192  0.482  0.481  0.297- 120 0.96
 193  0.878  0.873  0.675- 121 0.96
 194  0.060  0.892  0.252- 122 1.00
 195  0.897  0.703  0.675- 121 1.04
 196  0.437  0.485  0.330- 120 0.98
 197  0.002  0.745  0.242- 122 0.93
 198  0.218  0.797  0.280- 123 0.94
 199  0.258  0.964  0.285- 123 0.98
 200  0.693  0.430  0.271- 124 1.00
 201  0.160  0.155  0.301- 125 1.00
 202  0.405  0.216  0.220- 126 0.97
 203  0.681  0.261  0.265- 124 1.02
 204  0.267  0.275  0.235- 126 1.02
 205  0.529  0.017  0.728- 127 0.97
 206  0.571  0.872  0.746- 127 0.97
 207  0.470  0.167  0.265- 128 1.01
 208  0.470  0.663  0.687- 129 0.97
 209  0.539  0.999  0.258- 128 1.01
 210  0.566  0.775  0.702- 129 0.95
 211  0.278  0.574  0.770- 141 0.98
 212  0.414  0.302  0.775- 130 1.01
 213  0.560  0.302  0.789- 130 0.98
 214  0.420  0.962  0.807- 131 0.94
 215  0.831  0.323  0.301- 132 0.95
 216  0.104  0.865  0.320- 133 0.94
 217  0.829  0.242  0.332- 132 0.95
 218  0.403  0.135  0.807- 131 0.98
 219  0.020  0.012  0.324- 133 0.97
 220  0.556  0.687  0.194- 134 0.92
 221  0.661  0.815  0.192- 134 0.95
 222  0.018  0.245  0.299- 125 0.98
 223  0.437  0.102  0.673- 136 0.98
 224  0.172  0.354  0.756- 137 0.98
 225  0.583  0.162  0.668- 136 0.99
 226  0.848  0.008  0.190- 135 0.93
 227  0.196  0.283  0.788- 137 1.00
 228  0.408  0.455  0.220- 138 1.04
 229  0.335  0.564  0.197- 138 0.97
 230  0.555  0.500  0.720-  99 0.96
 231  0.243  0.592  0.301- 139 0.98
 232  0.147  0.252  0.671- 140 0.99
 233  0.103  0.595  0.313- 139 0.96
 234  0.994  0.208  0.681- 140 0.95
 235  0.243  0.722  0.755- 141 0.97
 236  0.861  0.903  0.215- 135 0.97
 237  0.093  0.253  0.836- 142 0.95
 238  0.104  0.093  0.817- 142 1.03
 239  0.369  0.203  0.313- 143 0.99
 240  0.298  0.102  0.337- 143 1.00
 241  0.401  0.803  0.245- 144 1.00
 242  0.519  0.808  0.225- 144 0.97
 243  0.496  0.097  0.180- 145 1.01
 244  0.499  0.264  0.172- 145 0.96
 245  0.303  0.551  0.815- 146 0.99
 246  0.172  0.569  0.831- 146 0.95
 
  LATTYP: Found a simple orthorhombic cell.
 ALAT       =     8.7818242400
 B/A-ratio  =     1.1547005384
 C/A-ratio  =     5.1235937740
  
  Lattice vectors:
  
 A1 = (   0.0000000000,  -8.7818242400,   0.0000000000)
 A2 = (  10.1403771780,   0.0000000000,   0.0000000000)
 A3 = (   0.0000000000,   0.0000000000,  44.9945000000)


Analysis of symmetry for initial positions (statically):
=====================================================================
 Subroutine PRICEL returns:
 Original cell was already a primitive cell.
 

 Routine SETGRP: Setting up the symmetry group for a 
 simple orthorhombic supercell.


 Subroutine GETGRP returns: Found  1 space group operations
 (whereof  1 operations were pure point group operations)
 out of a pool of  8 trial point group operations.


The static configuration has the point symmetry C_1 .


Analysis of symmetry for dynamics (positions and initial velocities):
=====================================================================
 Subroutine PRICEL returns:
 Original cell was already a primitive cell.
 

 Routine SETGRP: Setting up the symmetry group for a 
 simple orthorhombic supercell.


 Subroutine GETGRP returns: Found  1 space group operations
 (whereof  1 operations were pure point group operations)
 out of a pool of  8 trial point group operations.


The dynamic configuration has the point symmetry C_1 .


 Subroutine INISYM returns: Found  1 space group operations
 (whereof  1 operations are pure point group operations),
 and found     1 'primitive' translations


----------------------------------------------------------------------------------------

                                     Primitive cell                                     

  volume of cell :    4006.8057

  direct lattice vectors                    reciprocal lattice vectors
    10.140377178  0.000000000  0.000000000     0.098615661  0.000000000  0.000000000
     0.000000000  8.781824240  0.000000000     0.000000000  0.113871557  0.000000000
     0.000000000  0.000000000 44.994500000     0.000000000  0.000000000  0.022224939

  length of vectors
    10.140377178  8.781824240 44.994500000     0.098615661  0.113871557  0.022224939

  position of ions in fractional coordinates (direct lattice)
     0.696533263  0.134544938  0.381011679
     0.947507162  0.142605906  0.385303537
     0.202218316  0.131024030  0.384779695
     0.445750678  0.117381078  0.381660203
     0.797868744  0.385199010  0.384669460
     0.074168839  0.383972613  0.383507540
     0.319272148  0.370150883  0.384358088
     0.557876685  0.380654396  0.382759004
     0.947291194  0.620478143  0.381800442
     0.206769429  0.627811472  0.379111447
     0.446385763  0.613501233  0.383497316
     0.677734159  0.632948218  0.384350532
     0.064428570  0.875742874  0.381417951
     0.317450716  0.860135639  0.384605452
     0.562760132  0.878825377  0.383022147
     0.816343402  0.875471860  0.384847481
     0.565250178  0.207101617  0.428713732
     0.806156404  0.200464044  0.429573837
     0.075969561  0.207054930  0.430258365
     0.337994331  0.213350888  0.428984876
     0.681721190  0.453268010  0.428333685
     0.944345544  0.459382913  0.426900177
     0.186622250  0.463318314  0.427655825
     0.438144452  0.478973376  0.431985243
     0.819434017  0.696294965  0.430807321
     0.066403842  0.705885227  0.429267133
     0.318996024  0.714304890  0.431098468
     0.556374768  0.719174038  0.427773617
     0.948334547  0.959925839  0.429780529
     0.183066169  0.960604513  0.428651502
     0.436464041  0.957699650  0.430011668
     0.694427818  0.949486094  0.428320350
     0.562499787  0.041666741  0.475588350
     0.812500349  0.041666741  0.475588350
     0.062499648  0.041666741  0.475588350
     0.312500210  0.041666741  0.475588350
     0.687500068  0.291667190  0.475588350
     0.937499645  0.291667190  0.475588350
     0.187499929  0.291667190  0.475588350
     0.437500492  0.291667190  0.475588350
     0.812500349  0.541666500  0.475588350
     0.062499648  0.541666500  0.475588350
     0.312500210  0.541666500  0.475588350
     0.562499787  0.541666500  0.475588350
     0.937499645  0.791666949  0.475588350
     0.187499929  0.791666949  0.475588350
     0.437500492  0.791666949  0.475588350
     0.687500068  0.791666949  0.475588350
     0.687500068  0.125000224  0.521591750
     0.937499645  0.125000224  0.521591750
     0.187499929  0.125000224  0.521591750
     0.437500492  0.125000224  0.521591750
     0.812500349  0.374999534  0.521591750
     0.062499648  0.374999534  0.521591750
     0.312500210  0.374999534  0.521591750
     0.562499787  0.374999534  0.521591750
     0.937499645  0.624999983  0.521591750
     0.187499929  0.624999983  0.521591750
     0.437500492  0.624999983  0.521591750
     0.687500068  0.624999983  0.521591750
     0.062499648  0.875000432  0.521591750
     0.312500210  0.875000432  0.521591750
     0.562499787  0.875000432  0.521591750
     0.812500349  0.875000432  0.521591750
     0.571049765  0.201127915  0.566430564
     0.807515328  0.204869734  0.568373023
     0.062084476  0.201453588  0.567557368
     0.303425597  0.199874189  0.565017058
     0.692565955  0.452692959  0.567786285
     0.933916938  0.460747094  0.566908400
     0.181510014  0.454412419  0.568657503
     0.428421934  0.457616765  0.566492794
     0.810586219  0.724826622  0.569353143
     0.050710145  0.697877779  0.569210904
     0.299377424  0.701924775  0.565277089
     0.555904371  0.695986373  0.568190779
     0.935533248  0.953837127  0.569166454
     0.173578356  0.941163222  0.566763938
     0.430861685  0.950696549  0.567719610
     0.673780657  0.953615077  0.571204481
     0.553549429  0.040850282  0.616432231
     0.802509597  0.044756077  0.614698685
     0.054153804  0.047860215  0.614883152
     0.300251159  0.027031969  0.611511629
     0.684118537  0.290548971  0.614138617
     0.926102633  0.304985607  0.609180233
     0.183871859  0.271976520  0.614667570
     0.433211696  0.287436862  0.610311483
     0.801113199  0.542449936  0.611331607
     0.058748308  0.530451290  0.615832157
     0.309265617  0.546381921  0.610400382
     0.549913470  0.534851287  0.613254064
     0.926681507  0.804028845  0.618999211
     0.187373701  0.777005986  0.612987365
     0.424410249  0.791210324  0.609640289
     0.671687047  0.781139523  0.613178500
     0.605054417  0.599597516  0.273456756
     0.067202628  0.480203188  0.726907955
     0.573680830  0.403888748  0.729021547
     0.866154172  0.005176601  0.774255965
     0.727399965  0.273352089  0.799547945
     0.432307391  0.160266246  0.714970941
     0.851319418  0.517502956  0.683162609
     0.182258507  0.978567751  0.203053262
     0.111911025  0.251312249  0.234922935
     0.302039061  0.575502294  0.678702064
     0.067149376  0.057945819  0.730175021
     0.690668589  0.033450909  0.319650402
     0.791435058  0.998269808  0.699657958
     0.933518530  0.613993158  0.334290191
     0.091543932  0.561164727  0.227687829
     0.777739315  0.706933984  0.797007634
     0.056148799  0.910219765  0.810607074
     0.797027552  0.788224612  0.293327851
     0.818573102  0.498058249  0.755884830
     0.939076509  0.578834176  0.174894487
     0.513429620  0.809575528  0.784283857
     0.142872398  0.759056412  0.721571748
     0.765418274  0.340888171  0.201104357
     0.403251272  0.477635385  0.309360700
     0.931941666  0.800466943  0.664513663
     0.973494361  0.842964946  0.246793941
     0.226415641  0.890718123  0.270609741
     0.751967098  0.339582064  0.269871206
     0.071803049  0.161712414  0.291218038
     0.367118494  0.269582940  0.237108535
     0.596330875  0.939490449  0.729866095
     0.555119391  0.106821769  0.265166631
     0.558996958  0.673415892  0.694908489
     0.466885000  0.289623196  0.794287302
     0.377239419  0.040110117  0.817203436
     0.872071112  0.315927525  0.319818200
     0.067432403  0.931141387  0.334288858
     0.573509239  0.783479584  0.186837502
     0.797929885  0.934653185  0.199818422
     0.514395067  0.094574883  0.659666404
     0.240584739  0.305438816  0.768206336
     0.383264836  0.568419484  0.215474336
     0.161681363  0.652450999  0.299993110
     0.071612721  0.266346711  0.684742802
     0.272299536  0.683843110  0.774287080
     0.112889292  0.210312795  0.817561257
     0.298668378  0.126220927  0.315625910
     0.493880051  0.841306977  0.244585449
     0.522634406  0.198238994  0.188143218
     0.262567156  0.594266050  0.833312960
     0.683946946  0.658867661  0.280949449
     0.544774608  0.686812880  0.263498205
     0.094669062  0.582527031  0.724616564
     0.046628443  0.423484905  0.708772406
     0.190668450  0.561981186  0.228211226
     0.663820475  0.408191954  0.734219960
     0.910660406  0.020203092  0.792373735
     0.778435542  0.054371391  0.779543278
     0.744361858  0.294903420  0.820041561
     0.774574738  0.357719525  0.787877629
     0.257501270  0.025945634  0.192900466
     0.478286943  0.253744545  0.720371601
     0.726015401  0.970482871  0.714673127
     0.755535999  0.536659568  0.682080254
     0.012527147  0.088195798  0.747552701
     0.228065481  0.929658779  0.219525498
     0.074568232  0.210169317  0.255146296
     0.242976169  0.490222747  0.682244719
     0.334398804  0.545636063  0.659270800
     0.998592047  0.578713472  0.190559513
     0.100645171  0.138094315  0.717773506
     0.678063535  0.305741715  0.197551034
     0.626409638  0.061718384  0.303971152
     0.649578402  0.009266867  0.337830179
     0.356110028  0.153336023  0.725927836
     0.868654079  0.035349147  0.710861550
     0.874109498  0.686902839  0.323738679
     0.904041323  0.510803892  0.328692173
     0.872114503  0.477848325  0.663611330
     0.064412791  0.462994919  0.232876907
     0.800888355  0.804048203  0.788517708
     0.122875114  0.872644429  0.796665370
     0.066667145  0.861017004  0.829249353
     0.755011364  0.873298052  0.305748925
     0.859015384  0.832987521  0.279775750
     0.805397063  0.591575265  0.769808754
     0.910083505  0.484477927  0.751075354
     0.852656647  0.684321371  0.811940571
     0.859803324  0.538361947  0.183875363
     0.582728817  0.758015626  0.796334219
     0.440865258  0.746044309  0.776996300
     0.114954304  0.160869765  0.222374068
     0.123816893  0.875987698  0.723274178
     0.165660505  0.743550522  0.700918112
     0.783036948  0.320826280  0.221766216
     0.481560983  0.480946770  0.297287002
     0.878255300  0.873145464  0.674948271
     0.060174290  0.891608598  0.251691207
     0.897181618  0.702672911  0.674828257
     0.437222395  0.484533724  0.329636511
     0.002375651  0.745357664  0.241925569
     0.217768034  0.796918705  0.280389825
     0.257572273  0.964009273  0.285479559
     0.692534398  0.430166888  0.270616631
     0.159726800  0.155225152  0.301237707
     0.405125956  0.215910721  0.220207359
     0.680581193  0.261491227  0.265071064
     0.266638011  0.274652502  0.234875151
     0.529207140  0.016919036  0.728072542
     0.571461978  0.871932732  0.746021403
     0.470343451  0.166825247  0.265180633
     0.469790218  0.663445298  0.687189768
     0.539408930  0.999458627  0.258013313
     0.566359604  0.775079279  0.701971574
     0.278171112  0.574123310  0.769946549
     0.413540831  0.301538715  0.775402771
     0.559950572  0.301540993  0.788648835
     0.420076090  0.961574699  0.806726600
     0.831005578  0.322576486  0.300764760
     0.104433985  0.864808927  0.320085566
     0.828843923  0.241824471  0.331610752
     0.403123072  0.135168954  0.807328896
     0.020331591  0.012105685  0.324039383
     0.555705168  0.687287725  0.193623665
     0.660812698  0.814876249  0.191511629
     0.017900715  0.244790825  0.299267466
     0.437221409  0.102053967  0.672707998
     0.171609987  0.354044890  0.756173755
     0.583272190  0.161661172  0.668211893
     0.848491121  0.008106516  0.190444165
     0.196261930  0.283131378  0.787597595
     0.408271796  0.455327947  0.219539499
     0.334924425  0.563789466  0.196769827
     0.555294927  0.500214976  0.719898210
     0.243062951  0.591955596  0.300502728
     0.146503426  0.251641338  0.671092245
     0.103059283  0.595264703  0.312503306
     0.994183927  0.208249442  0.681213482
     0.242681308  0.721515237  0.755158075
     0.861102092  0.902982089  0.214749803
     0.093058669  0.253041958  0.836349491
     0.104350162  0.093145795  0.816747825
     0.368928092  0.203179881  0.313126271
     0.298160507  0.101794340  0.337356344
     0.400919998  0.803179363  0.245257309
     0.519217373  0.807693232  0.224769027
     0.496205409  0.096657594  0.179674627
     0.499344345  0.264330045  0.171879896
     0.303124819  0.550713595  0.815245419
     0.171810177  0.569450021  0.830831768

  ion indices of the primitive-cell ions
   primitive index   ion index
                 1           1
                 2           2
                 3           3
                 4           4
                 5           5
                 6           6
                 7           7
                 8           8
                 9           9
                10          10
                11          11
                12          12
                13          13
                14          14
                15          15
                16          16
                17          17
                18          18
                19          19
                20          20
                21          21
                22          22
                23          23
                24          24
                25          25
                26          26
                27          27
                28          28
                29          29
                30          30
                31          31
                32          32
                33          33
                34          34
                35          35
                36          36
                37          37
                38          38
                39          39
                40          40
                41          41
                42          42
                43          43
                44          44
                45          45
                46          46
                47          47
                48          48
                49          49
                50          50
                51          51
                52          52
                53          53
                54          54
                55          55
                56          56
                57          57
                58          58
                59          59
                60          60
                61          61
                62          62
                63          63
                64          64
                65          65
                66          66
                67          67
                68          68
                69          69
                70          70
                71          71
                72          72
                73          73
                74          74
                75          75
                76          76
                77          77
                78          78
                79          79
                80          80
                81          81
                82          82
                83          83
                84          84
                85          85
                86          86
                87          87
                88          88
                89          89
                90          90
                91          91
                92          92
                93          93
                94          94
                95          95
                96          96
                97          97
                98          98
                99          99
               100         100
               101         101
               102         102
               103         103
               104         104
               105         105
               106         106
               107         107
               108         108
               109         109
               110         110
               111         111
               112         112
               113         113
               114         114
               115         115
               116         116
               117         117
               118         118
               119         119
               120         120
               121         121
               122         122
               123         123
               124         124
               125         125
               126         126
               127         127
               128         128
               129         129
               130         130
               131         131
               132         132
               133         133
               134         134
               135         135
               136         136
               137         137
               138         138
               139         139
               140         140
               141         141
               142         142
               143         143
               144         144
               145         145
               146         146
               147         147
               148         148
               149         149
               150         150
               151         151
               152         152
               153         153
               154         154
               155         155
               156         156
               157         157
               158         158
               159         159
               160         160
               161         161
               162         162
               163         163
               164         164
               165         165
               166         166
               167         167
               168         168
               169         169
               170         170
               171         171
               172         172
               173         173
               174         174
               175         175
               176         176
               177         177
               178         178
               179         179
               180         180
               181         181
               182         182
               183         183
               184         184
               185         185
               186         186
               187         187
               188         188
               189         189
               190         190
               191         191
               192         192
               193         193
               194         194
               195         195
               196         196
               197         197
               198         198
               199         199
               200         200
               201         201
               202         202
               203         203
               204         204
               205         205
               206         206
               207         207
               208         208
               209         209
               210         210
               211         211
               212         212
               213         213
               214         214
               215         215
               216         216
               217         217
               218         218
               219         219
               220         220
               221         221
               222         222
               223         223
               224         224
               225         225
               226         226
               227         227
               228         228
               229         229
               230         230
               231         231
               232         232
               233         233
               234         234
               235         235
               236         236
               237         237
               238         238
               239         239
               240         240
               241         241
               242         242
               243         243
               244         244
               245         245
               246         246

----------------------------------------------------------------------------------------

 
 
 KPOINTS: KPOINTS created by Atomic Simulation Env

Automatic generation of k-mesh.
 Grid dimensions read from file:
 generate k-points for:    2    2    1

 Generating k-lattice:

  Cartesian coordinates                     Fractional coordinates (reciprocal lattice)
     0.049307831  0.000000000  0.000000000     0.500000000  0.000000000  0.000000000
     0.000000000  0.056935779  0.000000000     0.000000000  0.500000000  0.000000000
     0.000000000  0.000000000  0.022224939     0.000000000  0.000000000  1.000000000

  Length of vectors
     0.049307831  0.056935779  0.022224939

  Shift w.r.t. Gamma in fractional coordinates (k-lattice)
     0.500000000  0.500000000  0.000000000

 
 Subroutine IBZKPT returns following result:
 ===========================================
 
 Found      2 irreducible k-points:
 
 Following reciprocal coordinates:
            Coordinates               Weight
  0.250000  0.250000  0.000000      2.000000
 -0.250000  0.250000  0.000000      2.000000
 
 Following cartesian coordinates:
            Coordinates               Weight
  0.024654  0.028468  0.000000      2.000000
 -0.024654  0.028468  0.000000      2.000000
 


--------------------------------------------------------------------------------------------------------




 Dimension of arrays:
   k-points           NKPTS =      2   k-points in BZ     NKDIM =      2   number of bands    NBANDS=    874
   number of dos      NEDOS =    301   number of ions     NIONS =    246
   non local maximal  LDIM  =      6   non local SUM 2l+1 LMDIM =     18
   total plane-waves  NPLWV = ******
   max r-space proj   IRMAX =   8786   max aug-charges    IRDMAX=  24681
   dimension x,y,z NGX =    96 NGY =   84 NGZ =  420
   dimension x,y,z NGXF=   192 NGYF=  168 NGZF=  840
   support grid    NGXF=   192 NGYF=  168 NGZF=  840
   ions per type =              96  50 100
   NGX,Y,Z   is equivalent  to a cutoff of  15.74, 15.90, 15.52 a.u.
   NGXF,Y,Z  is equivalent  to a cutoff of  31.48, 31.80, 31.04 a.u.

 SYSTEM =  unknown system                          
 POSCAR =  Cu O  H                                 

 Startparameter for this run:
   NWRITE =      2    write-flag & timer
   PREC   = accura    normal or accurate (medium, high low for compatibility)
   ISTART =      1    job   : 0-new  1-cont  2-samecut
   ICHARG =      1    charge: 1-file 2-atom 10-const
   ISPIN  =      1    spin polarized calculation?
   LNONCOLLINEAR =      F non collinear calculations
   LSORBIT =      F    spin-orbit coupling
   INIWAV =      1    electr: 0-lowe 1-rand  2-diag
   LASPH  =      T    aspherical Exc in radial PAW
 Electronic Relaxation 1
   ENCUT  =  800.0 eV  58.80 Ry    7.67 a.u.  23.39 20.25103.77*2*pi/ulx,y,z
   ENINI  =  800.0     initial cutoff
   ENAUG  = 1000.0 eV  augmentation charge cutoff
   NELM   =    300;   NELMIN=  2; NELMDL=  0     # of ELM steps 
   EDIFF  = 0.1E-07   stopping-criterion for ELM
   LREAL  =      T    real-space projection
   NLSPLINE    = F    spline interpolate recip. space projectors
   LCOMPAT=      F    compatible to vasp.4.4
   GGA_COMPAT  = T    GGA compatible to vasp.4.4-vasp.4.6
   LMAXPAW     = -100 max onsite density
   LMAXMIX     =    2 max onsite mixed and CHGCAR
   VOSKOWN=      0    Vosko Wilk Nusair interpolation
   ROPT   =   -0.00025  -0.00025  -0.00025
 Ionic relaxation
   EDIFFG = 0.1E-06   stopping-criterion for IOM
   NSW    =      0    number of steps for IOM
   NBLOCK =      1;   KBLOCK =      1    inner block; outer block 
   IBRION =     -1    ionic relax: 0-MD 1-quasi-New 2-CG
   NFREE  =      0    steps in history (QN), initial steepest desc. (CG)
   ISIF   =      2    stress and relaxation
   IWAVPR =     10    prediction:  0-non 1-charg 2-wave 3-comb
   ISYM   =      2    0-nonsym 1-usesym 2-fastsym
   LCORR  =      T    Harris-Foulkes like correction to forces

   POTIM  = 0.5000    time-step for ionic-motion
   TEIN   =    0.0    initial temperature
   TEBEG  =    0.0;   TEEND  =   0.0 temperature during run
   SMASS  =  -3.00    Nose mass-parameter (am)
   estimated Nose-frequenzy (Omega)   =  0.10E-29 period in steps = 0.13E+47 mass=  -0.235E-26a.u.
   SCALEE = 1.0000    scale energy and forces
   NPACO  =    256;   APACO  = 10.0  distance and # of slots for P.C.
   PSTRESS=    0.0 pullay stress

  Mass of Ions in am
   POMASS =  63.55 16.00  1.00
  Ionic Valenz
   ZVAL   =  11.00  6.00  1.00
  Atomic Wigner-Seitz radii
   RWIGS  =  -1.00 -1.00 -1.00
  virtual crystal weights 
   VCA    =   1.00  1.00  1.00
   NELECT =    1456.0000    total number of electrons
   NUPDOWN=      -1.0000    fix difference up-down

 DOS related values:
   EMIN   =  10.00;   EMAX   =-10.00  energy-range for DOS
   EFERMI =   0.00;   METHOD = LEGACY      
   ISMEAR =     0;   SIGMA  =   0.10  broadening in eV -4-tet -1-fermi 0-gaus

 Electronic relaxation 2 (details)
   IALGO  =     58    algorithm
   LDIAG  =      T    sub-space diagonalisation (order eigenvalues)
   LSUBROT=      F    optimize rotation matrix (better conditioning)
   TURBO    =      0    0=normal 1=particle mesh
   IRESTART =      0    0=no restart 2=restart with 2 vectors
   NREBOOT  =      0    no. of reboots
   NMIN     =      0    reboot dimension
   EREF     =   0.00    reference energy to select bands
   IMIX   =      4    mixing-type and parameters
     AMIX     =   0.40;   BMIX     =  1.00
     AMIX_MAG =   1.60;   BMIX_MAG =  1.00
     AMIN     =   0.10
     WC   =   100.;   INIMIX=   1;  MIXPRE=   1;  MAXMIX= -45

 Intra band minimization:
   WEIMIN = 0.0000     energy-eigenvalue tresh-hold
   EBREAK =  0.29E-11  absolut break condition
   DEPER  =   0.30     relativ break condition  

   TIME   =   0.40     timestep for ELM

  volume/ion in A,a.u.               =      16.29       109.92
  Fermi-wavevector in a.u.,A,eV,Ry     =   1.168232  2.207639 18.568777  1.364767
  Thomas-Fermi vector in A             =   2.304722
 
 Write flags
   LWAVE        =      T    write WAVECAR
   LDOWNSAMPLE  =      F    k-point downsampling of WAVECAR
   LCHARG       =      T    write CHGCAR
   LVTOT        =      F    write LOCPOT, total local potential
   LVHAR        =      T    write LOCPOT, Hartree potential only
   WRT_POTENTIAL=  hartree ionic  ! write potential to hdf5 file
   LELF         =      F    write electronic localiz. function (ELF)
   LORBIT       =      0    0 simple, 1 ext, 2 COOP (PROOUT), +10 PAW based schemes


 Dipole corrections
   LMONO      =      F    monopole corrections only (constant potential shift)
   LDIPOL     =      T    correct potential (dipole corrections)
   IDIPOL     =      3    1-x, 2-y, 3-z, 4-all directions 
   EPSILON    =  1.0000000 bulk dielectric constant
   LVACPOTAV  =      T  vacuum potentials using an averaging scheme for the charge density
   VACPOTFLAT =  0.1000000 required flatness to determine vacuum potential
 Exchange correlation treatment:
   METAGGA = R2SCAN    functional components
   XC_C    = 1    coefficients multiplying the functional components
   LIBXC   =     F    Libxc                    
   VOSKOWN =     0    Vosko Wilk Nusair interpolation
   LHFCALC =     F    Hartree Fock is set to
   LHFONE  =     F    Hartree Fock one center treatment
   AEXX    =    0.0000 exact exchange contribution

 Parameters of functionals:
   R2SCAN:
     No parameter
 
 Accuracy and mixing parameters for tau-dependent meta-GGA functionals:
   LMAXTAU = 6
   LMIXTAU = T
 
 Van der Waals corrections
   IVDW    =     0    specifies the selected vdW correction

 Linear response parameters
   LEPSILON=     F    determine dielectric tensor
   LRPA    =     F    only Hartree local field effects (RPA)
   LNABLA  =     F    use nabla operator in PAW spheres
   LVEL    =     F    velocity operator in full k-point grid
   CSHIFT  =0.1000    complex shift for real part using Kramers Kronig
   OMEGAMAX=  -1.0    maximum frequency
   DEG_THRESHOLD= 0.2000000E-02 threshold for treating states as degnerate
   RTIME   =   -0.100 relaxation time in fs
  (WPLASMAI=    0.000 imaginary part of plasma frequency in eV, 0.658/RTIME)
   DFIELD  = 0.0000000 0.0000000 0.0000000 field for delta impulse in time
 
  Optional k-point grid parameters
   LKPOINTS_OPT  =     F    use optional k-point grid
   KPOINTS_OPT_MODE=     1    mode for optional k-point grid
 
 Orbital magnetization related:
   ORBITALMAG=     F  switch on orbital magnetization
   LCHIMAG   =     F  perturbation theory with respect to B field
   DQ        =  0.001000  dq finite difference perturbation B field
   LLRAUG    =     F  two centre corrections for induced B field
   LBONE     =     F  B-component reconstruction in AE one-centre
   LVGVCALC  =     T  calculate vGv susceptibility
   LVGVAPPL  =     F  apply vGv susceptibility instead of pGv for G=0

 Random number generation:
   RANDOM_GENERATOR = DEFAULT
   PCG_SEED         = not used


--------------------------------------------------------------------------------------------------------


 Static calculation
 charge density and potential will be updated during run
 non-spin polarized calculation
 Conjugate gradient for all bands (Freysoldt, et al. PRB 79, 241103 (2009))
 preconditioned conjugated gradient                                        
 perform sub-space diagonalisation
    before iterative eigenvector-optimisation
 modified Broyden-mixing scheme, WC =      100.0
 initial mixing is a Kerker type mixing with AMIX =  0.4000 and BMIX =      1.0000
 Hartree-type preconditioning will be used
 using additional bands           146
 real space projection scheme for non local part
 use partial core corrections
 no Harris-corrections to forces 
 use gradient corrections 
 use of overlap-Matrix (Vanderbilt PP)
 Gauss-broadening in eV      SIGMA  =   0.10


--------------------------------------------------------------------------------------------------------


  energy-cutoff  :      800.00
  volume of cell :     4006.81
      direct lattice vectors                 reciprocal lattice vectors
    10.140377178  0.000000000  0.000000000     0.098615661  0.000000000  0.000000000
     0.000000000  8.781824240  0.000000000     0.000000000  0.113871557  0.000000000
     0.000000000  0.000000000 44.994500000     0.000000000  0.000000000  0.022224939

  length of vectors
    10.140377178  8.781824240 44.994500000     0.098615661  0.113871557  0.022224939


 
 old parameters found on file WAVECAR:
  energy-cutoff  :      800.00
  volume of cell :     4006.81
      direct lattice vectors                 reciprocal lattice vectors
    10.140377178  0.000000000  0.000000000     0.098615661  0.000000000  0.000000000
     0.000000000  8.781824240  0.000000000     0.000000000  0.113871557  0.000000000
     0.000000000  0.000000000 44.994500000     0.000000000  0.000000000  0.022224939

  length of vectors

 
 k-points in units of 2pi/SCALE and weight: KPOINTS created by Atomic Simulation Env
   0.02465392  0.02846789  0.00000000       0.500
  -0.02465392  0.02846789  0.00000000       0.500
 
 k-points in reciprocal lattice and weights: KPOINTS created by Atomic Simulation Env
   0.25000000  0.25000000  0.00000000       0.500
  -0.25000000  0.25000000  0.00000000       0.500
 
 position of ions in fractional coordinates (direct lattice) 
   0.69653326  0.13454494  0.38101168
   0.94750716  0.14260591  0.38530354
   0.20221832  0.13102403  0.38477970
   0.44575068  0.11738108  0.38166020
   0.79786874  0.38519901  0.38466946
   0.07416884  0.38397261  0.38350754
   0.31927215  0.37015088  0.38435809
   0.55787668  0.38065440  0.38275900
   0.94729119  0.62047814  0.38180044
   0.20676943  0.62781147  0.37911145
   0.44638576  0.61350123  0.38349732
   0.67773416  0.63294822  0.38435053
   0.06442857  0.87574287  0.38141795
   0.31745072  0.86013564  0.38460545
   0.56276013  0.87882538  0.38302215
   0.81634340  0.87547186  0.38484748
   0.56525018  0.20710162  0.42871373
   0.80615640  0.20046404  0.42957384
   0.07596956  0.20705493  0.43025836
   0.33799433  0.21335089  0.42898488
   0.68172119  0.45326801  0.42833369
   0.94434554  0.45938291  0.42690018
   0.18662225  0.46331831  0.42765582
   0.43814445  0.47897338  0.43198524
   0.81943402  0.69629496  0.43080732
   0.06640384  0.70588523  0.42926713
   0.31899602  0.71430489  0.43109847
   0.55637477  0.71917404  0.42777362
   0.94833455  0.95992584  0.42978053
   0.18306617  0.96060451  0.42865150
   0.43646404  0.95769965  0.43001167
   0.69442782  0.94948609  0.42832035
   0.56249979  0.04166674  0.47558835
   0.81250035  0.04166674  0.47558835
   0.06249965  0.04166674  0.47558835
   0.31250021  0.04166674  0.47558835
   0.68750007  0.29166719  0.47558835
   0.93749964  0.29166719  0.47558835
   0.18749993  0.29166719  0.47558835
   0.43750049  0.29166719  0.47558835
   0.81250035  0.54166650  0.47558835
   0.06249965  0.54166650  0.47558835
   0.31250021  0.54166650  0.47558835
   0.56249979  0.54166650  0.47558835
   0.93749964  0.79166695  0.47558835
   0.18749993  0.79166695  0.47558835
   0.43750049  0.79166695  0.47558835
   0.68750007  0.79166695  0.47558835
   0.68750007  0.12500022  0.52159175
   0.93749964  0.12500022  0.52159175
   0.18749993  0.12500022  0.52159175
   0.43750049  0.12500022  0.52159175
   0.81250035  0.37499953  0.52159175
   0.06249965  0.37499953  0.52159175
   0.31250021  0.37499953  0.52159175
   0.56249979  0.37499953  0.52159175
   0.93749964  0.62499998  0.52159175
   0.18749993  0.62499998  0.52159175
   0.43750049  0.62499998  0.52159175
   0.68750007  0.62499998  0.52159175
   0.06249965  0.87500043  0.52159175
   0.31250021  0.87500043  0.52159175
   0.56249979  0.87500043  0.52159175
   0.81250035  0.87500043  0.52159175
   0.57104976  0.20112792  0.56643056
   0.80751533  0.20486973  0.56837302
   0.06208448  0.20145359  0.56755737
   0.30342560  0.19987419  0.56501706
   0.69256595  0.45269296  0.56778628
   0.93391694  0.46074709  0.56690840
   0.18151001  0.45441242  0.56865750
   0.42842193  0.45761677  0.56649279
   0.81058622  0.72482662  0.56935314
   0.05071015  0.69787778  0.56921090
   0.29937742  0.70192477  0.56527709
   0.55590437  0.69598637  0.56819078
   0.93553325  0.95383713  0.56916645
   0.17357836  0.94116322  0.56676394
   0.43086169  0.95069655  0.56771961
   0.67378066  0.95361508  0.57120448
   0.55354943  0.04085028  0.61643223
   0.80250960  0.04475608  0.61469869
   0.05415380  0.04786022  0.61488315
   0.30025116  0.02703197  0.61151163
   0.68411854  0.29054897  0.61413862
   0.92610263  0.30498561  0.60918023
   0.18387186  0.27197652  0.61466757
   0.43321170  0.28743686  0.61031148
   0.80111320  0.54244994  0.61133161
   0.05874831  0.53045129  0.61583216
   0.30926562  0.54638192  0.61040038
   0.54991347  0.53485129  0.61325406
   0.92668151  0.80402884  0.61899921
   0.18737370  0.77700599  0.61298737
   0.42441025  0.79121032  0.60964029
   0.67168705  0.78113952  0.61317850
   0.60505442  0.59959752  0.27345676
   0.06720263  0.48020319  0.72690796
   0.57368083  0.40388875  0.72902155
   0.86615417  0.00517660  0.77425596
   0.72739996  0.27335209  0.79954794
   0.43230739  0.16026625  0.71497094
   0.85131942  0.51750296  0.68316261
   0.18225851  0.97856775  0.20305326
   0.11191102  0.25131225  0.23492294
   0.30203906  0.57550229  0.67870206
   0.06714938  0.05794582  0.73017502
   0.69066859  0.03345091  0.31965040
   0.79143506  0.99826981  0.69965796
   0.93351853  0.61399316  0.33429019
   0.09154393  0.56116473  0.22768783
   0.77773931  0.70693398  0.79700763
   0.05614880  0.91021977  0.81060707
   0.79702755  0.78822461  0.29332785
   0.81857310  0.49805825  0.75588483
   0.93907651  0.57883418  0.17489449
   0.51342962  0.80957553  0.78428386
   0.14287240  0.75905641  0.72157175
   0.76541827  0.34088817  0.20110436
   0.40325127  0.47763538  0.30936070
   0.93194167  0.80046694  0.66451366
   0.97349436  0.84296495  0.24679394
   0.22641564  0.89071812  0.27060974
   0.75196710  0.33958206  0.26987121
   0.07180305  0.16171241  0.29121804
   0.36711849  0.26958294  0.23710854
   0.59633088  0.93949045  0.72986609
   0.55511939  0.10682177  0.26516663
   0.55899696  0.67341589  0.69490849
   0.46688500  0.28962320  0.79428730
   0.37723942  0.04011012  0.81720344
   0.87207111  0.31592753  0.31981820
   0.06743240  0.93114139  0.33428886
   0.57350924  0.78347958  0.18683750
   0.79792989  0.93465319  0.19981842
   0.51439507  0.09457488  0.65966640
   0.24058474  0.30543882  0.76820634
   0.38326484  0.56841948  0.21547434
   0.16168136  0.65245100  0.29999311
   0.07161272  0.26634671  0.68474280
   0.27229954  0.68384311  0.77428708
   0.11288929  0.21031279  0.81756126
   0.29866838  0.12622093  0.31562591
   0.49388005  0.84130698  0.24458545
   0.52263441  0.19823899  0.18814322
   0.26256716  0.59426605  0.83331296
   0.68394695  0.65886766  0.28094945
   0.54477461  0.68681288  0.26349821
   0.09466906  0.58252703  0.72461656
   0.04662844  0.42348490  0.70877241
   0.19066845  0.56198119  0.22821123
   0.66382048  0.40819195  0.73421996
   0.91066041  0.02020309  0.79237373
   0.77843554  0.05437139  0.77954328
   0.74436186  0.29490342  0.82004156
   0.77457474  0.35771953  0.78787763
   0.25750127  0.02594563  0.19290047
   0.47828694  0.25374455  0.72037160
   0.72601540  0.97048287  0.71467313
   0.75553600  0.53665957  0.68208025
   0.01252715  0.08819580  0.74755270
   0.22806548  0.92965878  0.21952550
   0.07456823  0.21016932  0.25514630
   0.24297617  0.49022275  0.68224472
   0.33439880  0.54563606  0.65927080
   0.99859205  0.57871347  0.19055951
   0.10064517  0.13809431  0.71777351
   0.67806354  0.30574171  0.19755103
   0.62640964  0.06171838  0.30397115
   0.64957840  0.00926687  0.33783018
   0.35611003  0.15333602  0.72592784
   0.86865408  0.03534915  0.71086155
   0.87410950  0.68690284  0.32373868
   0.90404132  0.51080389  0.32869217
   0.87211450  0.47784832  0.66361133
   0.06441279  0.46299492  0.23287691
   0.80088836  0.80404820  0.78851771
   0.12287511  0.87264443  0.79666537
   0.06666715  0.86101700  0.82924935
   0.75501136  0.87329805  0.30574892
   0.85901538  0.83298752  0.27977575
   0.80539706  0.59157526  0.76980875
   0.91008350  0.48447793  0.75107535
   0.85265665  0.68432137  0.81194057
   0.85980332  0.53836195  0.18387536
   0.58272882  0.75801563  0.79633422
   0.44086526  0.74604431  0.77699630
   0.11495430  0.16086976  0.22237407
   0.12381689  0.87598770  0.72327418
   0.16566050  0.74355052  0.70091811
   0.78303695  0.32082628  0.22176622
   0.48156098  0.48094677  0.29728700
   0.87825530  0.87314546  0.67494827
   0.06017429  0.89160860  0.25169121
   0.89718162  0.70267291  0.67482826
   0.43722240  0.48453372  0.32963651
   0.00237565  0.74535766  0.24192557
   0.21776803  0.79691870  0.28038983
   0.25757227  0.96400927  0.28547956
   0.69253440  0.43016689  0.27061663
   0.15972680  0.15522515  0.30123771
   0.40512596  0.21591072  0.22020736
   0.68058119  0.26149123  0.26507106
   0.26663801  0.27465250  0.23487515
   0.52920714  0.01691904  0.72807254
   0.57146198  0.87193273  0.74602140
   0.47034345  0.16682525  0.26518063
   0.46979022  0.66344530  0.68718977
   0.53940893  0.99945863  0.25801331
   0.56635960  0.77507928  0.70197157
   0.27817111  0.57412331  0.76994655
   0.41354083  0.30153872  0.77540277
   0.55995057  0.30154099  0.78864883
   0.42007609  0.96157470  0.80672660
   0.83100558  0.32257649  0.30076476
   0.10443399  0.86480893  0.32008557
   0.82884392  0.24182447  0.33161075
   0.40312307  0.13516895  0.80732890
   0.02033159  0.01210569  0.32403938
   0.55570517  0.68728772  0.19362367
   0.66081270  0.81487625  0.19151163
   0.01790071  0.24479082  0.29926747
   0.43722141  0.10205397  0.67270800
   0.17160999  0.35404489  0.75617375
   0.58327219  0.16166117  0.66821189
   0.84849112  0.00810652  0.19044417
   0.19626193  0.28313138  0.78759760
   0.40827180  0.45532795  0.21953950
   0.33492443  0.56378947  0.19676983
   0.55529493  0.50021498  0.71989821
   0.24306295  0.59195560  0.30050273
   0.14650343  0.25164134  0.67109224
   0.10305928  0.59526470  0.31250331
   0.99418393  0.20824944  0.68121348
   0.24268131  0.72151524  0.75515807
   0.86110209  0.90298209  0.21474980
   0.09305867  0.25304196  0.83634949
   0.10435016  0.09314579  0.81674782
   0.36892809  0.20317988  0.31312627
   0.29816051  0.10179434  0.33735634
   0.40092000  0.80317936  0.24525731
   0.51921737  0.80769323  0.22476903
   0.49620541  0.09665759  0.17967463
   0.49934434  0.26433005  0.17187990
   0.30312482  0.55071360  0.81524542
   0.17181018  0.56945002  0.83083177
 
 position of ions in cartesian coordinates  (Angst):
   7.06311000  1.18155000 17.14343000
   9.60808000  1.25234000 17.33654000
   2.05057000  1.15063000 17.31297000
   4.52008000  1.03082000 17.17261000
   8.09069000  3.38275000 17.30801000
   0.75210000  3.37198000 17.25573000
   3.23754000  3.25060000 17.29400000
   5.65708000  3.34284000 17.22205000
   9.60589000  5.44893000 17.17892000
   2.09672000  5.51333000 17.05793000
   4.52652000  5.38766000 17.25527000
   6.87248000  5.55844000 17.29366000
[...]
      3.16887      0.36591     21.39886        -0.082412      0.025117     -0.155683
      6.97151      2.56137     21.39886        -0.002655     -0.001462     -0.073989
      9.50660      2.56137     21.39886         0.005559      0.011495     -0.252678
      1.90132      2.56137     21.39886         0.173925      0.066726     -0.094249
      4.43642      2.56137     21.39886         0.162566      0.039466      0.098745
      8.23906      4.75682     21.39886         0.010098     -0.237615     -0.024827
      0.63377      4.75682     21.39886        -0.017545     -0.072418     -0.203103
      3.16887      4.75682     21.39886        -0.281636      0.006884      0.218830
      5.70396      4.75682     21.39886         0.275996      0.122182      0.129981
      9.50660      6.95228     21.39886         0.051910     -0.011664      0.038635
      1.90132      6.95228     21.39886        -0.089419      0.036220     -0.019386
      4.43642      6.95228     21.39886         0.150331      0.017709      0.222002
      6.97151      6.95228     21.39886         0.019376     -0.054978     -0.146608
      6.97151      1.09773     23.46876         0.138174     -0.182995     -0.074226
      9.50660      1.09773     23.46876        -0.095285     -0.094912      0.134486
      1.90132      1.09773     23.46876        -0.184309     -0.177327     -0.313927
      4.43642      1.09773     23.46876         0.071117     -0.040667     -0.094192
      8.23906      3.29318     23.46876        -0.024392     -0.076292     -0.042293
      0.63377      3.29318     23.46876         0.007208      0.023699      0.036725
      3.16887      3.29318     23.46876        -0.141488      0.053552     -0.174927
      5.70396      3.29318     23.46876         0.014673      0.045579      0.049021
      9.50660      5.48864     23.46876        -0.093834      0.121179      0.030666
      1.90132      5.48864     23.46876        -0.347141     -0.110311     -0.186730
      4.43642      5.48864     23.46876         0.018999      0.045365     -0.165335
      6.97151      5.48864     23.46876         0.059339      0.073873      0.235166
      0.63377      7.68410     23.46876        -0.234177     -0.132888     -0.119207
      3.16887      7.68410     23.46876        -0.027212      0.103215     -0.141601
      5.70396      7.68410     23.46876         0.063888     -0.004574      0.189703
      8.23906      7.68410     23.46876        -0.099960      0.129862      0.246327
      5.79066      1.76627     25.48626        -0.977046      0.235381      0.464416
      8.18851      1.79913     25.57366         0.322081     -0.385853     -0.483032
      0.62956      1.76913     25.53696        -0.273384      0.091748     -0.070969
      3.07685      1.75526     25.42266         0.493525      0.051374      0.813425
      7.02288      3.97547     25.54726        -0.681762      0.221963     -0.251257
      9.47027      4.04620     25.50776         0.083395     -0.016857     -0.249873
      1.84058      3.99057     25.58646        -0.173885     -0.316209     -0.177305
      4.34436      4.01871     25.48906         0.431364     -0.478317     -0.006469
      8.21965      6.36530     25.61776        -0.196348     -0.774628     -0.168414
      0.51422      6.12864     25.61136         0.148233      0.325802      0.187940
      3.03580      6.16418     25.43436         0.393449      0.174664      0.241808
      5.63708      6.11203     25.56546         0.230515      0.215119     -0.433020
      9.48666      8.37643     25.60936        -0.274107      0.282805      0.079709
      1.76015      8.26513     25.50126         0.475100      0.531470      0.348539
      4.36910      8.34885     25.54426         0.087462      0.493616     -0.348129
      6.83239      8.37448     25.70106         0.301665      0.130692     -0.485182
      5.61320      0.35874     27.73606        -0.144320     -0.173596     -0.415093
      8.13775      0.39304     27.65806         0.140548      0.063619     -0.247680
      0.54914      0.42030     27.66636        -0.071786     -0.328776     -0.288882
      3.04466      0.23739     27.51466        -0.137522      0.418752     -0.077213
      6.93722      2.55155     27.63286        -0.159287      0.172731     -0.268036
      9.39103      2.67833     27.40976         0.394988     -0.787799      1.017969
      1.86453      2.38845     27.65666         0.185078      0.809892     -0.354114
      4.39293      2.52422     27.46066        -0.349887      0.001788     -0.036101
      8.12359      4.76370     27.50656         0.243891      0.181951      0.335821
      0.59573      4.65833     27.70906         0.038243      0.208366     -0.431291
      3.13607      4.79823     27.46466        -0.127595     -0.810971      0.351872
      5.57633      4.69697     27.59306         0.279668     -0.070668     -0.073422
      9.39690      7.06084     27.85156         0.103834     -0.518792     -0.175697
      1.90004      6.82353     27.58106        -0.703542      0.482522     -0.027610
      4.30368      6.94827     27.43046         0.437435     -0.373252      0.634293
      6.81116      6.85983     27.58966         0.101005      0.216321      0.249926
      6.13548      5.26556     12.30405        -0.775267      2.114675     -0.646032
      0.68146      4.21706     32.70686        -0.269545     -2.382464      1.089598
      5.81734      3.54688     32.80196        -1.265677     -0.763965     -0.065569
      8.78313      0.04546     34.83726        -2.923091      0.562135     -0.389264
      7.37611      2.40053     35.97526         1.269217      1.292814     -1.278754
      4.38376      1.40743     32.16976         1.482555     -0.459925     -1.554933
      8.63270      4.54462     30.73856        -0.952629      0.410291      0.051929
      1.84817      8.59361      9.13628         1.306619      0.341244     -0.045488
      1.13482      2.20698     10.57024        -1.066605     -0.876782      1.388698
      3.06279      5.05396     30.53786        -0.448204     -0.507619      0.253879
      0.68092      0.50887     32.85386        -0.594637     -1.109916      0.921301
      7.00364      0.29376     14.38251         0.893185      0.424983     -2.022239
      8.02545      8.76663     31.48076         1.946379      0.787635     -0.298264
      9.46623      5.39198     15.04122        -0.362369     -0.006975     -0.102527
      0.92829      4.92805     10.24470         1.965334      2.268888     -0.386010
      7.88657      6.20817     35.86096         1.789575     -0.920560      2.184297
      0.56937      7.99339     36.47286         0.017085      0.201790     -0.896976
      8.08216      6.92205     13.19814        -1.032323      0.381281      1.784231
      8.30064      4.37386     34.01066        -1.195222      0.839991      1.632764
      9.52259      5.08322      7.86929        -1.596630      0.086585     -1.545614
      5.20637      7.10955     35.28846         1.253976      0.129940      0.100593
      1.44878      6.66590     32.46676         0.057883      2.692921     -0.005736
      7.76163      2.99362      9.04859         0.723629      0.500810     -0.103639
      4.08912      4.19451     13.91953        -0.353342     -0.527562      0.549973
      9.45024      7.02956     29.89946        -0.261666     -2.104009      0.732114
      9.87160      7.40277     11.10437         0.543113      2.555135      0.754945
      2.29594      7.82213     12.17595         0.772944      2.224795     -1.146795
      7.62523      2.98215     12.14272        -2.292974     -0.528697     -0.848959
      0.72811      1.42013     13.10321        -0.449685      0.098087     -0.317721
      3.72272      2.36743     10.66858        -0.541143      0.438370     -0.277494
      6.04702      8.25044     32.83996        -0.077093     -1.054188      0.357533
      5.62912      0.93809     11.93104        -0.592469      0.422129      0.784197
      5.66844      5.91382     31.26706        -0.228984     -1.154259     -0.453208
      4.73439      2.54342     35.73856        -0.349695      0.908128     -2.114673
      3.82535      0.35224     36.76966        -1.104980      0.578600      0.741388
      8.84313      2.77442     14.39006         1.913697      1.191143      1.048506
      0.68379      8.17712     15.04116        -0.647448      0.714133      1.268619
      5.81560      6.88038      8.40666        -1.197243      2.423726     -0.909618
      8.09131      8.20796      8.99073        -0.683115     -1.185154      1.194931
      5.21616      0.83054     29.68136         0.697627      0.576184      0.708730
      2.43962      2.68231     34.56506        -1.159877      0.531541      0.029041
      3.88645      4.99176      9.69516         0.275318     -1.916544     -0.354356
      1.63951      5.72971     13.49804         0.965331     -0.685603      0.046104
      0.72618      2.33901     30.80966         1.453287      0.851511      0.870250
      2.76122      6.00539     34.83866         0.188567     -0.893036     -0.498762
      1.14474      1.84693     36.78576        -0.269437     -1.522302     -1.287304
      3.02861      1.10845     14.20143         1.057913      0.144875      0.483007
      5.00813      7.38821     11.00500        -1.894389     -1.292567      0.138347
      5.29971      1.74090      8.46541        -1.109205     -1.733174     -1.100560
      2.66253      5.21874     37.49450         0.744477     -0.457642     -0.621690
      6.93548      5.78606     12.64118        -1.042652     -0.240968     -0.404680
      5.52422      6.03147     11.85597         2.080657     -2.042467      1.155832
      0.95998      5.11565     32.60376        -0.086880      1.214519     -0.541635
      0.47283      3.71897     31.89086         0.214486      0.732475      0.209621
      1.93345      4.93522     10.26825        -1.632436     -0.225434      0.122476
      6.73139      3.58467     33.03586         1.335889      0.181189      0.464830
      9.23444      0.17742     35.65246         1.067565      0.028174      1.107540
      7.89363      0.47748     35.07516         1.625607     -0.423895     -0.866028
      7.54811      2.58979     36.89736        -0.093438      0.046741      0.239322
      7.85448      3.14143     35.45016        -0.765373     -1.263739      0.597386
      2.61116      0.22785      8.67946        -0.835670     -0.335513      0.101737
      4.85001      2.22834     32.41276         0.312626      0.602609      0.234977
      7.36207      8.52261     32.15636        -0.307784     -0.073117      0.128466
      7.66142      4.71285     30.68986         0.647074     -0.132912      0.141128
      0.12703      0.77452     33.63576         0.729550      0.023183     -1.087820
      2.31267      8.16410      9.87744        -0.464873      0.078552      0.013698
      0.75615      1.84567     11.48018         1.193164      0.617822     -1.302888
      2.46387      4.30505     30.69726         0.076542      0.327975      0.401182
      3.39093      4.79168     29.66356         0.272303      0.252423     -0.505196
     10.12610      5.08216      8.57413         1.455903      0.056846      1.599558
      1.02058      1.21272     32.29586        -0.285158      0.835746      0.192245
      6.87582      2.68497      8.88871        -0.392995     -0.504087      0.102583
      6.35203      0.54200     13.67703         0.110778     -0.071280      0.422595
      6.58697      0.08138     15.20050        -1.140397     -0.329214      1.188877
      3.61109      1.34657     32.66276        -2.232506      0.116353      1.647789
      8.80848      0.31043     31.98486        -0.742365     -0.490641     -0.386756
      8.86380      6.03226     14.56646         0.496904     -0.390126     -0.064563
      9.16732      4.48579     14.78934        -0.114740      0.047583      0.162457
      8.84357      4.19638     29.85886         0.012994     -0.207305     -0.268369
      0.65317      4.06594     10.47818        -0.187338     -1.845007      0.339266
      8.12131      7.06101     35.47896         0.435251      0.762812     -0.292548
      1.24600      7.66341     35.84556        -0.125286     -0.114202      0.804352
      0.67603      7.56130     37.31166         0.674228     -0.412686      0.405781
      7.65610      7.66915     13.75702         0.614306     -0.676068     -1.054311
      8.71074      7.31515     12.58837         0.562117      0.222868     -0.633986
      8.16703      5.19511     34.63716         0.502199     -1.731710     -1.296763
      9.22859      4.25460     33.79426         0.596392      0.331804     -0.424759
      8.64626      6.00959     36.53286        -2.110387      0.704259     -1.873017
      8.71873      4.72780      8.27338         0.140220     -0.213164     -0.206163
      5.90909      6.65676     35.83066        -1.425947      0.068203     -0.968936
      4.47054      6.55163     34.96056         0.223088     -0.364642      0.812129
      1.16568      1.41273     10.00561        -0.189330      0.024358     -0.062576
      1.25555      7.69277     32.54336        -0.055347     -2.088216     -0.021820
      1.67986      6.52973     31.53746         0.201642      0.079332     -0.066182
      7.94029      2.81744      9.97826        -0.107676      0.053909      0.191773
      4.88321      4.22359     13.37628         0.430332      0.527913     -0.440246
      8.90584      7.66781     30.36896        -0.595487      1.140930      0.395585
      0.61019      7.82995     11.32472        -1.224468     -0.280245      0.064871
      9.09776      6.17075     30.36356         0.907158      0.896116     -1.066047
      4.43360      4.25509     14.83183        -0.266769      0.076368     -0.183940
      0.02409      6.54560     10.88532         0.492389     -2.335212     -0.646739
      2.20825      6.99840     12.61600        -0.527340     -1.513693      0.989521
      2.61188      8.46576     12.84501        -0.021845     -0.345752     -0.423845
      7.02256      3.77765     12.17626         0.716997     -0.050462     -0.173059
      1.61969      1.36316     13.55404        -0.595739      0.615106     -0.142308
      4.10813      1.89609      9.90812        -0.085778      0.165815      0.213933
      6.90135      2.29637     11.92674         1.470791      0.393806      0.472810
      2.70381      2.41195     10.56809         0.852869     -0.357038      0.318614
      5.36636      0.14858     32.75926        -0.409413      0.559109     -0.187166
      5.79484      7.65716     33.56686         0.009206      0.197675      0.506356
      4.76946      1.46503     11.93167         1.182138     -1.157437     -0.579644
      4.76385      5.82626     30.91976         0.220671     -0.044746      0.152772
      5.46981      8.77707     11.60918        -0.305944      1.245584      0.110122
      5.74310      6.80661     31.58486         0.174541      1.030035      0.409046
      2.82076      5.04185     34.64336        -0.099763      0.508711      0.269084
      4.19346      2.64806     34.88886         0.856596     -0.022862      1.690510
      5.67811      2.64808     35.48486        -0.586547     -0.264474      0.464196
      4.25973      8.44438     36.29826         0.680466     -0.896634     -0.615304
      8.42671      2.83281     13.53276        -1.350688     -0.189390     -1.402283
      1.05900      7.59460     14.40209         0.399227     -0.958178     -0.973623
      8.40479      2.12366     14.92066        -0.648527     -0.744136      0.336695
      4.08782      1.18703     36.32536         0.237683     -0.272887      0.270267
      0.20617      0.10631     14.57999         0.255173     -0.166213     -0.224580
      5.63506      6.03564      8.71200        -0.187825     -2.761256      0.706178
      6.70089      7.15610      8.61697         1.389863      0.249872      0.115868
      0.18152      2.14971     13.46539         0.406985     -0.461837      0.387527
      4.43359      0.89622     30.26816         0.566545      0.110555     -0.104013
      1.74019      3.10916     34.02366         0.368943     -0.123903     -0.006363
      5.91460      1.41968     30.06586        -0.858059     -0.763843     -0.213971
      8.60402      0.07119      8.56894         0.735112      1.656285     -1.459135
      1.99017      2.48641     35.43756         0.473865     -0.121379     -0.556635
      4.14003      3.99861      9.87807        -0.850097      1.905333      0.141604
      3.39626      4.95110      8.85356         0.302040      0.068661      0.343437
      5.63090      4.39280     32.39146        -0.025914      0.746850     -0.414818
      2.46475      5.19845     13.52097        -0.013286      0.132348      0.139797
      1.48560      2.20987     30.19546        -1.262753     -0.475088     -0.220147
      1.04506      5.22751     14.06093        -0.661854      0.181051      0.247998
     10.08140      1.82881     30.65086        -0.256496     -0.598092     -1.105983
      2.46088      6.33622     33.97796        -0.204904      0.193722     -0.465658
      8.73190      7.92983      9.66256        -0.061645     -0.472009      0.437994
      0.94365      2.22217     37.63113        -0.005276     -0.279514      0.719437
      1.05815      0.81799     36.74916         0.250267      2.104124      0.596801
      3.74107      1.78429     14.08896        -0.802631     -0.370917      0.195827
      3.02346      0.89394     15.17918         0.070401      0.191399     -0.790063
      4.06548      7.05338     11.03523         1.096338      0.869254      0.385660
      5.26506      7.09302     10.11337         0.511141      0.372917     -0.616362
      5.03171      0.84883      8.08437         0.965562      1.227110      0.818815
      5.06354      2.32130      7.73365         0.029266      0.248745     -0.060734
      3.07380      4.83627     36.68156        -0.375244      0.465833      1.159438
      1.74222      5.00081     37.38286        -0.400201     -0.181089     -0.088648
 -----------------------------------------------------------------------------------
    total drift:                                0.000860     -0.001780      0.014859


--------------------------------------------------------------------------------------------------------



  FREE ENERGIE OF THE ION-ELECTRON SYSTEM (eV)
  ---------------------------------------------------
  free  energy   TOTEN  =     -1808.98025554 eV

  energy  without entropy=    -1808.77196303  energy(sigma->0) =    -1808.87610928
 


--------------------------------------------------------------------------------------------------------


    POTLOK:  cpu time     12.1896: real time     12.2118


--------------------------------------------------------------------------------------------------------


 writing wavefunctions
     LOOP+:  cpu time   1145.1995: real time   1147.4412
 vacuum level on the upper side and lower side of the slab         4.282         5.021
    4ORBIT:  cpu time      0.0000: real time      0.0000

 total amount of memory used by VASP MPI-rank0 10659157. kBytes
=======================================================================

   base      :      30000. kBytes
   nonlr-proj:     190059. kBytes
   fftplans  :     468582. kBytes
   grid      :    1221211. kBytes
   one-center:       3825. kBytes
   wavefun   :    8745480. kBytes
 
  
  
 General timing and accounting informations for this job:
 ========================================================
  
                  Total CPU time used (sec):     1259.279
                            User time (sec):     1216.200
                          System time (sec):       43.079
                         Elapsed time (sec):     1262.000
  
                   Maximum memory used (kb):    11857480.
                   Average memory used (kb):          N/A
  
                          Minor page faults:     10029084
                          Major page faults:           43
                 Voluntary context switches:        26302
