246
Lattice="10.140377178 0.0 0.0 0.0 8.78182424 0.0 0.0 0.0 30.131127158" Properties=species:S:1:pos:R:3:initial_charges:R:1:forces:R:3 NELECT0=1456.0 NELECT=1456.571772059509 U_vs_SHE=-0.9958706205647925 stress="0.013350382050463135 -0.002031374043128217 -0.00020393506917910958 -0.002031374043128217 0.011187212300632767 0.0015408725654524294 -0.00020393506917910958 0.0015408725654524294 0.005246238080669914" free_energy=-1809.72093823 energy=-1811.362786417127 pbc="T T T"
Cu       7.06311000       1.18155000       9.77517000      -0.04117500      -0.24253600      -0.33731200       0.58671300
Cu       9.60808000       1.25234000       9.96828000      -0.05171600      -0.22031900      -0.18950900       0.25909700
Cu       2.05057000       1.15063000       9.94471000      -0.05240400      -0.27452700      -0.24986000       0.16583100
Cu       4.52008000       1.03082000       9.80435000      -0.08407000      -0.04622300       0.25688800       0.25736100
Cu       8.09069000       3.38275000       9.93975000      -0.01899300       0.76564300      -0.20523700      -0.09930100
Cu       0.75210000       3.37198000       9.88747000      -0.04189100      -0.05870000      -0.46658500      -0.11525300
Cu       3.23754000       3.25060000       9.92574000      -0.06021000       0.03094000       0.32972500      -0.15562900
Cu       5.65708000       3.34284000       9.85379000      -0.05660000       0.21271800      -0.65551200       0.11487200
Cu       9.60589000       5.44893000       9.81066000       0.15614400      -0.31010700       0.36581200      -0.10125600
Cu       2.09672000       5.51333000       9.68967000      -0.00965100      -0.54674100      -0.45078800       0.69553500
Cu       4.52652000       5.38766000       9.88701000      -0.06118100      -0.69369000       0.69109800      -0.11097300
Cu       6.87248000       5.55844000       9.92540000      -0.04169300       0.84498300      -0.05393100       0.01677800
Cu       0.65333000       7.69062000       9.79345000       0.15382900       0.17325300       0.24994100       0.09858800
Cu       3.21907000       7.55356000       9.93687000      -0.05563800       0.23868900       0.82913100      -0.00509500
Cu       5.70660000       7.71769000       9.86563000      -0.08228400       0.18115600       0.02954700      -0.00983400
Cu       8.27803000       7.68824000       9.94776000      -0.04201000       0.00259200       0.09782500       0.10686600
Cu       5.73185000       1.81873000      11.92150000       0.01076200       0.46190100      -0.09982200      -0.06411700
Cu       8.17473000       1.76044000      11.96020000       0.01319100       0.58578100       0.35300400      -0.08969000
Cu       0.77036000       1.81832000      11.99100000       0.01657500      -0.31097500       0.39900900      -0.15130500
Cu       3.42739000       1.87361000      11.93370000       0.01642700      -1.35149100      -0.01845600       0.12986500
Cu       6.91291000       3.98052000      11.90440000       0.01921100       0.20831100       0.45046300       0.55670400
Cu       9.57602000       4.03422000      11.83990000       0.02108900      -0.40994600      -0.45933200       0.47561500
Cu       1.89242000       4.06878000      11.87390000       0.02449700       0.58324400      -0.02737100       0.43914400
Cu       4.44295000       4.20626000      12.06870000       0.01018200      -0.02306500      -1.06350900      -0.61915600
Cu       8.30937000       6.11474000      12.01570000       0.01602800      -0.29954400       0.44389800      -0.69661900
Cu       0.67336000       6.19896000      11.94640000       0.04435000       0.05860300       0.28025400      -0.54329200
Cu       3.23474000       6.27290000      12.02880000       0.00336800      -0.83657400      -0.08308800      -0.43714000
Cu       5.64185000       6.31566000      11.87920000       0.01745800       0.73601400      -0.28705300       0.64715600
Cu       9.61647000       8.42990000      11.96950000       0.01588200      -0.62354700      -0.15130700      -0.32266200
Cu       1.85636000       8.43586000      11.91870000       0.00560300       0.73031300      -0.23642200       0.00534000
Cu       4.42591000       8.41035000      11.97990000       0.01657100       0.12989800       0.35168500      -0.17818900
Cu       7.04176000       8.33822000      11.90380000       0.01972000      -0.20877400       0.33312200       0.23085500
Cu       5.70396000       0.36591000      14.03060000       0.03276400       0.09717100      -0.03093700      -0.17574700
Cu       8.23906000       0.36591000      14.03060000      -0.00259200       0.00284600      -0.13301900      -0.11127700
Cu       0.63377000       0.36591000      14.03060000      -0.03159300       0.06432500      -0.03027000       0.17212500
Cu       3.16887000       0.36591000      14.03060000       0.00551800      -0.08326400       0.02667500      -0.14965400
Cu       6.97151000       2.56137000      14.03060000      -0.02418100      -0.00304000      -0.00022600      -0.06992700
Cu       9.50660000       2.56137000      14.03060000       0.02677900       0.00571900       0.01115000      -0.24785700
Cu       1.90132000       2.56137000      14.03060000       0.00115100       0.17488300       0.06931700      -0.09039500
Cu       4.43642000       2.56137000      14.03060000       0.00241800       0.16366500       0.03974900       0.10707000
Cu       8.23906000       4.75682000      14.03060000      -0.02734000       0.01135500      -0.23483500      -0.02112000
Cu       0.63377000       4.75682000      14.03060000       0.00209400      -0.01748800      -0.07081500      -0.20037600
Cu       3.16887000       4.75682000      14.03060000       0.00327100      -0.28511000       0.01061800       0.22509400
Cu       5.70396000       4.75682000      14.03060000       0.02547500       0.27757800       0.12491500       0.13754600
Cu       9.50660000       6.95228000      14.03060000      -0.00036000       0.05120600      -0.01027100       0.04312300
Cu       1.90132000       6.95228000      14.03060000       0.00167100      -0.09028700       0.03810700      -0.01638600
Cu       4.43642000       6.95228000      14.03060000      -0.01567000       0.15317400       0.01983000       0.23059800
Cu       6.97151000       6.95228000      14.03060000       0.02381500       0.02002500      -0.05306000      -0.14117800
Cu       6.97151000       1.09773000      16.10050000      -0.00261600       0.13846100      -0.18436500      -0.07691600
Cu       9.50660000       1.09773000      16.10050000       0.00165700      -0.09694400      -0.09780200       0.13143900
Cu       1.90132000       1.09773000      16.10050000      -0.02681700      -0.18499600      -0.17923700      -0.31742800
Cu       4.43642000       1.09773000      16.10050000       0.02236700       0.07223000      -0.04212000      -0.09608800
Cu       8.23906000       3.29318000      16.10050000       0.00289900      -0.02381500      -0.07763000      -0.04679700
Cu       0.63377000       3.29318000      16.10050000       0.03431000       0.00696500       0.02357100       0.03161100
Cu       3.16887000       3.29318000      16.10050000      -0.02153900      -0.14267100       0.05364900      -0.17851700
Cu       5.70396000       3.29318000      16.10050000       0.00174800       0.01573500       0.04416000       0.04738300
Cu       9.50660000       5.48864000      16.10050000      -0.02347400      -0.09224100       0.12046500       0.03066500
Cu       1.90132000       5.48864000      16.10050000       0.00407300      -0.34925200      -0.11146600      -0.18889400
Cu       4.43642000       5.48864000      16.10050000      -0.00252200       0.01838800       0.04234600      -0.16765900
Cu       6.97151000       5.48864000      16.10050000       0.02491700       0.06012200       0.07520000       0.23364500
Cu       0.63377000       7.68410000      16.10050000       0.00306700      -0.23475000      -0.13653600      -0.12465900
Cu       3.16887000       7.68410000      16.10050000      -0.00264700      -0.02997200       0.10299300      -0.14571100
Cu       5.70396000       7.68410000      16.10050000       0.00403100       0.06751100      -0.00643900       0.18926100
Cu       8.23906000       7.68410000      16.10050000      -0.00715300      -0.09968200       0.12984100       0.24502000
Cu       5.79066000       1.76627000      18.11800000       0.01579000      -0.97708200       0.23907000       0.46971300
Cu       8.18851000       1.79913000      18.20540000       0.01457100       0.32247300      -0.38333000      -0.48757000
Cu       0.62956000       1.76913000      18.16870000       0.01048200      -0.27300200       0.09638300      -0.07451200
Cu       3.07685000       1.75526000      18.05440000       0.00855300       0.49230300       0.05452900       0.81421800
Cu       7.02288000       3.97547000      18.17900000       0.02088100      -0.68141100       0.22356800      -0.25225200
Cu       9.47027000       4.04620000      18.13950000       0.00909600       0.08368800      -0.01646800      -0.24928900
Cu       1.84058000       3.99057000      18.21820000       0.02980500      -0.17427200      -0.31682800      -0.17935900
Cu       4.34436000       4.01871000      18.12080000       0.01743400       0.42994100      -0.47665500      -0.00711600
Cu       8.21965000       6.36530000      18.24950000       0.00908600      -0.19522300      -0.77244300      -0.16951400
Cu       0.51422000       6.12864000      18.24310000       0.02331400       0.14748100       0.32850400       0.19038100
Cu       3.03580000       6.16418000      18.06610000       0.01567000       0.39448500       0.17771600       0.24002700
Cu       5.63708000       6.11203000      18.19720000       0.02410600       0.22969500       0.21638000      -0.43286100
Cu       9.48666000       8.37643000      18.24110000       0.01500200      -0.27382000       0.28371700       0.08081300
Cu       1.76015000       8.26513000      18.13300000       0.01771400       0.47221400       0.53367600       0.35033400
Cu       4.36910000       8.34885000      18.17600000       0.02027600       0.08557900       0.49497400      -0.34736800
Cu       6.83239000       8.37448000      18.33280000       0.02465300       0.30339400       0.13301700      -0.48850900
Cu       5.61320000       0.35874000      20.36780000       0.18362100      -0.13285100      -0.18392600      -0.47820500
Cu       8.13775000       0.39304000      20.28980000      -0.03390300       0.13895900       0.06725300      -0.25548200
Cu       0.54914000       0.42030000      20.29810000      -0.03404100      -0.07097400      -0.32469500      -0.28947800
Cu       3.04466000       0.23739000      20.14640000      -0.07003500      -0.14032700       0.41875900      -0.06881800
Cu       6.93722000       2.55155000      20.26460000      -0.05040900      -0.15752500       0.17217300      -0.25342000
Cu       9.39103000       2.67833000      20.04150000      -0.08680700       0.39774000      -0.78643700       1.03554600
Cu       1.86453000       2.38845000      20.28840000      -0.11659300       0.18620400       0.80982700      -0.33405000
Cu       4.39293000       2.52422000      20.09240000      -0.02943800      -0.35307200       0.00901600      -0.03546800
Cu       8.12359000       4.76370000      20.13830000      -0.07560600       0.24580500       0.18070500       0.33541400
Cu       0.59573000       4.65833000      20.34080000      -0.04374700       0.03810000       0.20598600      -0.43976600
Cu       3.13607000       4.79823000      20.09640000      -0.09628500      -0.12603500      -0.81113300       0.36266000
Cu       5.57633000       4.69697000      20.22480000      -0.04644200       0.27710300      -0.07210800      -0.07036400
Cu       9.39690000       7.06084000      20.48330000       0.19350400       0.10723500      -0.51815100      -0.24819800
Cu       1.90004000       6.82353000      20.21280000      -0.01910700      -0.70592400       0.48114100      -0.02596700
Cu       4.30368000       6.94827000      20.06220000      -0.05613400       0.43703800      -0.37227600       0.63762900
Cu       6.81116000       6.85983000      20.22140000      -0.01569000       0.09864000       0.21979500       0.24072300
O        6.13548000       5.26556000       4.93579000      -1.31173500      -0.68279600       2.11325100      -0.71688900
O        0.68146000       4.21706000      25.33860000      -1.43318800      -0.19905100      -2.38677400       1.15129800
O        5.81734000       3.54688000      25.43370000      -1.37057200      -1.32534300      -0.79898600       0.02965600
O        8.78313000       0.04546000      27.46900000      -1.30144500      -2.89276200       0.69065600      -0.44608900
O        7.37611000       2.40053000      28.60700000      -1.28683100       0.94526700       1.28098900      -1.38128200
O        4.38376000       1.40743000      24.80150000      -1.37628000       1.48582400      -0.45433900      -1.42619500
O        8.63270000       4.54462000      23.37030000      -1.26810300      -0.96185400       0.40136100       0.12308500
O        1.84817000       8.59361000       1.76802000      -1.26411500       1.04871800       0.30654900       0.07199700
O        1.13482000       2.20698000       3.20198000      -1.33232000      -1.26101000      -0.79738400       1.14903900
O        3.06279000       5.05396000      23.16960000      -1.30299500      -0.44566500      -0.49209100       0.37732600
O        0.68092000       0.50887000      25.48560000      -1.32685300      -0.54113700      -1.11207100       0.98398200
O        7.00364000       0.29376000       7.01425000      -1.32906500       0.91329400       0.39707400      -2.21965600
O        8.02545000       8.76663000      24.11250000      -1.33732500       1.90215200       0.79530300      -0.22179100
O        9.46623000       5.39198000       7.67296000      -1.36117400      -0.37223600       0.00894100      -0.28991100
O        0.92829000       4.92805000       2.87644000      -1.28389200       1.61043200       2.22048700      -0.70200800
O        7.88657000       6.20817000      28.49270000      -1.29579200       1.55903400      -0.69179200       1.60417200
O        0.56937000       7.99339000      29.10460000      -1.29753900       0.26359000       0.41394400      -1.09264400
O        8.08216000       6.92205000       5.82988000      -1.33708000      -0.97578100       0.38018700       1.58362100
O        8.30064000       4.37386000      26.64240000      -1.33908100      -1.19949400       0.68899500       1.47394700
O        9.52259000       5.08322000       0.50103000      -1.35000000      -1.58347200       0.14275900      -2.02032500
O        5.20637000       7.10955000      27.92020000      -1.34104700       0.95380700       0.23616800       0.07184300
O        1.44878000       6.66590000      25.09850000      -1.30520300       0.09806700       2.70177300       0.07097000
O        7.76163000       2.99362000       1.68033000      -1.35133600       1.01238700       0.62633400      -0.42015900
O        4.08912000       4.19451000       6.55127000      -1.32570100      -0.34127900      -0.51285300       0.42411900
O        9.45024000       7.02956000      22.53120000      -1.31006000      -0.27066900      -2.09792800       0.84439600
O        9.87160000       7.40277000       3.73611000      -1.32109100       0.47901500       2.51277000       0.51744200
O        2.29594000       7.82213000       4.80769000      -1.36729700       0.70548300       2.21860300      -1.24492200
O        7.62523000       2.98215000       4.77446000      -1.31051000      -2.25409100      -0.52847000      -1.07246400
O        0.72811000       1.42013000       5.73495000      -1.35368400      -0.49005500       0.14656100      -0.54450300
O        3.72272000       2.36743000       3.30032000      -1.34404200      -0.78592200       0.33001800      -0.12174900
O        6.04702000       8.25044000      25.47170000      -1.35683000      -0.13210000      -1.02774900       0.42738900
O        5.62912000       0.93809000       4.56278000      -1.36445900      -0.54314100       0.42700100       0.73547700
O        5.66844000       5.91382000      23.89880000      -1.35202900      -0.23869900      -1.15418000      -0.36258200
O        4.73439000       2.54342000      28.37030000      -1.34843500      -0.41496000       0.78146100      -1.78882800
O        3.82535000       0.35224000      29.40140000      -1.38295700      -1.01566900       0.67496400       1.17300000
O        8.84313000       2.77442000       7.02180000      -1.42952900       1.90729000       1.19580000       0.81503700
O        0.68379000       8.17712000       7.67290000      -1.30823400      -0.65820600       0.72843700       1.11690200
O        5.81560000       6.88038000       1.03840000      -1.33928800      -0.86618400       2.39331400      -1.03571500
O        8.09131000       8.20796000       1.62247000      -1.31525700      -0.49133300      -1.26622200       0.95172200
O        5.21616000       0.83054000      22.31310000      -1.28348100       0.67150000       0.56430000       0.83353200
O        2.43962000       2.68231000      27.19680000      -1.33691800      -0.97265400       0.50611000       0.14601300
O        3.88645000       4.99176000       2.32690000      -1.31448600       0.66308400      -2.10736500       0.60067900
O        1.63951000       5.72971000       6.12978000      -1.34533900       0.95669600      -0.68796900      -0.09564700
O        0.72618000       2.33901000      23.44140000      -1.34858500       1.43269100       0.84889500       1.00029900
O        2.76122000       6.00539000      27.47040000      -1.32286200       0.24663900      -0.97308200      -0.36897300
O        1.14474000       1.84693000      29.41750000      -1.31304300       0.08698300      -1.53647800      -1.22578500
O        3.02861000       1.10845000       6.83317000      -1.27174800       1.00024500       0.14509100       0.29954000
O        5.00813000       7.38821000       3.63674000      -1.29769100      -1.82632600      -1.26878500       0.10831500
O        5.29971000       1.74090000       1.09715000      -1.29689300      -0.25444000      -1.03140900      -0.23694700
O        2.66253000       5.21874000      30.12624000      -1.23672800       0.75362100      -0.58042100      -0.94270100
H        6.93548000       5.78606000       5.27292000       0.65416900      -1.05803300      -0.23443600      -0.35574300
H        5.52422000       6.03147000       4.48771000       0.62426000       2.04713200      -2.06128900       1.15081000
H        0.95998000       5.11565000      25.23550000       0.72303000      -0.10788500       1.20316300      -0.55232600
H        0.47283000       3.71897000      24.52260000       0.70506700       0.20943100       0.70305200       0.15920500
H        1.93345000       4.93522000       2.89999000       0.62125300      -1.31390900      -0.18745700       0.03244000
H        6.73139000       3.58467000      25.66760000       0.68835700       1.40022200       0.20259400       0.46362800
H        9.23444000       0.17742000      28.28420000       0.67935300       1.05319000      -0.03786900       1.11959500
H        7.89363000       0.47748000      27.70690000       0.63588200       1.67181600      -0.45302500      -0.85976300
H        7.54811000       2.58979000      29.52910000       0.63877200       0.18205700       0.06734700       0.44469000
H        7.85448000       3.14143000      28.08190000       0.64727000      -0.70586800      -1.20643400       0.60485100
H        2.61116000       0.22785000       1.31120000       0.63047400      -0.56556000      -0.33381900      -0.34988700
H        4.85001000       2.22834000      25.04450000       0.72143800       0.32018600       0.60830300       0.18103600
H        7.36207000       8.52261000      24.78810000       0.71139500      -0.23766400      -0.06182200       0.08613900
H        7.66142000       4.71285000      23.32160000       0.63658000       0.66557700      -0.13479200       0.10877100
H        0.12703000       0.77452000      26.26750000       0.66437600       0.68426700       0.00618900      -1.08259400
H        2.31267000       8.16410000       2.50918000       0.64185400      -0.48504000       0.05552700       0.01850600
H        0.75615000       1.84567000       4.11192000       0.66949000       1.15808400       0.56997900      -1.08151700
H        2.46387000       4.30505000      23.32900000       0.62895400       0.07278600       0.32266600       0.35728000
H        3.39093000       4.79168000      22.29530000       0.59893500       0.27549700       0.24877700      -0.57576900
H       10.12610000       5.08216000       1.20587000       0.67074900       1.66556800       0.14343300       2.04620500
H        1.02058000       1.21272000      24.92760000       0.66580000      -0.30060300       0.85815700       0.11859400
H        6.87582000       2.68497000       1.52045000       0.66829700      -0.87526300      -0.64210200       0.15435400
H        6.35203000       0.54200000       6.30877000       0.65984500       0.12797800      -0.09026500       0.50554900
H        6.58697000       0.08138000       7.83224000       0.61209300      -1.15181500      -0.32944100       1.28385600
H        3.61109000       1.34657000      25.29450000       0.66168300      -2.24919800       0.11557300       1.58137300
H        8.80848000       0.31043000      24.61660000       0.60073200      -0.75551300      -0.49547700      -0.39969200
H        8.86380000       6.03226000       7.19820000       0.68415600       0.53159700      -0.45098400       0.03824800
H        9.16732000       4.48579000       7.42108000       0.68954700      -0.11494200       0.07786400       0.21279000
H        8.84357000       4.19638000      22.49060000       0.60304400       0.01402700      -0.21025100      -0.31866900
H        0.65317000       4.06594000       3.10992000       0.66189700      -0.15309900      -1.85626700       0.46675100
H        8.12131000       7.06101000      28.11070000       0.67416300       0.32088000       0.56213500      -0.22097000
H        1.24600000       7.66341000      28.47730000       0.67139100      -0.30702500      -0.12054800       0.79686400
H        0.67603000       7.56130000      29.94340000       0.67019000       0.49926600      -0.49102700       0.62847500
H        7.65610000       7.66915000       6.38876000       0.66418100       0.57120300      -0.60266200      -0.96760600
H        8.71074000       7.31515000       5.22011000       0.67131100       0.48296100       0.21306800      -0.49775900
H        8.16703000       5.19511000      27.26890000       0.65471700       0.48787400      -1.53506500      -1.04502500
H        9.22859000       4.25460000      26.42600000       0.66369900       0.53775300       0.33382300      -0.38513600
H        8.64626000       6.00959000      29.16460000       0.64036200      -1.69849000       0.42771900      -1.25178000
H        8.71873000       4.72780000       0.90512000       0.66628100      -0.06445200      -0.33734700      -0.03491900
H        5.90909000       6.65676000      28.46240000       0.67701900      -1.21481300       0.08395300      -0.76937900
H        4.47054000       6.55163000      27.59230000       0.66579400       0.29172000      -0.31407600       0.76532000
H        1.16568000       1.41273000       2.63735000       0.65773300      -0.06292500      -0.06536700       0.02394100
H        1.25555000       7.69277000      25.17510000       0.66131600      -0.07378100      -2.09571300      -0.04064300
H        1.67986000       6.52973000      24.16920000       0.64948600       0.20918200       0.06873600      -0.10326700
H        7.94029000       2.81744000       2.61000000       0.66403300      -0.07747700       0.04262800       0.31863800
H        4.88321000       4.22359000       6.00802000       0.66142800       0.38169200       0.51041900      -0.39652000
H        8.90584000       7.66781000      23.00070000       0.68451600      -0.57194500       1.10652800       0.34341800
H        0.61019000       7.82995000       3.95646000       0.65415700      -1.12094000      -0.25321200       0.13560800
H        9.09776000       6.17075000      22.99530000       0.64273100       0.90910300       0.91583500      -1.09164900
H        4.43360000       4.25509000       7.46357000       0.61171300      -0.26756400       0.07494700      -0.10100300
H        0.02409000       6.54560000       3.51706000       0.67456700       0.51689800      -2.30173900      -0.52233900
H        2.20825000       6.99840000       5.24774000       0.70358400      -0.52049000      -1.54426300       1.03961000
H        2.61188000       8.46576000       5.47675000       0.66529000      -0.01120600      -0.30683700      -0.36972200
H        7.02256000       3.77765000       4.80800000       0.66274900       0.66574900      -0.01467500      -0.13105100
H        1.61969000       1.36316000       6.18578000       0.68670400      -0.48719400       0.59517100      -0.06908200
H        4.10813000       1.89609000       2.53986000       0.65478800       0.00577600       0.15805600       0.02237000
H        6.90135000       2.29637000       4.55848000       0.64482700       1.40767000       0.36167000       0.51599700
H        2.70381000       2.41195000       3.19983000       0.66638100       1.17351800      -0.33131700       0.31837700
H        5.36636000       0.14858000      25.39100000       0.67975000      -0.39458200       0.53798500      -0.22851900
H        5.79484000       7.65716000      26.19860000       0.67810000       0.04056200       0.18706700       0.47495500
H        4.76946000       1.46503000       4.56341000       0.67938200       1.16059900      -1.13912200      -0.59014500
H        4.76385000       5.82626000      23.55150000       0.65135300       0.21063600      -0.04857600       0.10787400
H        5.46981000       8.77707000       4.24092000       0.68018400      -0.32251000       1.25931600       0.11962100
H        5.74310000       6.80661000      24.21660000       0.68481800       0.17863100       1.00541000       0.37072800
H        2.82076000       5.04185000      27.27510000       0.64228600      -0.13016500       0.54315200       0.19871100
H        4.19346000       2.64806000      27.52060000       0.65994800       0.63200600       0.02018000       1.62020100
H        5.67811000       2.64808000      28.11660000       0.68075300      -0.24081800      -0.26607400       0.44069200
H        4.25973000       8.44438000      28.93000000       0.68579600       0.81005100      -1.26956100      -0.73169400
H        8.42671000       2.83281000       6.16450000       0.73807500      -1.28070000      -0.20464400      -1.22971700
H        1.05900000       7.59460000       7.03383000       0.65763500       0.39653100      -0.94218300      -0.92719700
H        8.40479000       2.12366000       7.55240000       0.66179900      -0.65771800      -0.75717100       0.42120500
H        4.08782000       1.18703000      28.95710000       0.67568800       0.13500600      -0.15678000      -0.08791900
H        0.20617000       0.10631000       7.21173000       0.66385400       0.25304100      -0.19892300      -0.15222200
H        5.63506000       6.03564000       1.34374000       0.66147100      -0.35746500      -2.83267900       0.78011300
H        6.70089000       7.15610000       1.24871000       0.68365200       1.14787300       0.20690200       0.14873200
H        0.18152000       2.14971000       6.09713000       0.66229300       0.36831100      -0.45229500       0.45546200
H        4.43359000       0.89622000      22.89990000       0.66613400       0.56886400       0.10292100      -0.19017500
H        1.74019000       3.10916000      26.65540000       0.64920500       0.32416300      -0.08566100      -0.07620200
H        5.91460000       1.41968000      22.69760000       0.63722800      -0.84260700      -0.74751500      -0.25518200
H        8.60402000       0.07119000       1.20068000       0.64193400       0.69455100       1.74000100      -1.36056100
H        1.99017000       2.48641000      28.06930000       0.67093100       0.35166200      -0.11291700      -0.56101700
H        4.14003000       3.99861000       2.50981000       0.62249300      -0.83388100       2.12180800       0.12793900
H        3.39626000       4.95110000       1.48530000       0.66907300       0.08427100       0.15405500      -0.33789200
H        5.63090000       4.39280000      25.02320000       0.68023300      -0.02376500       0.77981900      -0.45840700
H        2.46475000       5.19845000       6.15271000       0.65890300       0.01779300       0.12607200       0.17925300
H        1.48560000       2.20987000      22.82720000       0.63936300      -1.23306900      -0.47285500      -0.30133500
H        1.04506000       5.22751000       6.69267000       0.67513900      -0.67861100       0.19144700       0.32328100
H       10.08140000       1.82881000      23.28260000       0.67085800      -0.26530500      -0.59201000      -1.14522500
H        2.46088000       6.33622000      26.60970000       0.67681700      -0.26672100       0.20231900      -0.52843000
H        8.73190000       7.92983000       2.29430000       0.67056500      -0.01807900      -0.44062700       0.63273000
H        0.94365000       2.22217000       0.13174000       0.64960000      -0.28463300      -0.12903900       0.72619200
H        1.05815000       0.81799000      29.38090000       0.65477300       0.07927800       1.89947000       0.56659600
H        3.74107000       1.78429000       6.72070000       0.63585000      -0.80534000      -0.36988000       0.23209500
H        3.02346000       0.89394000       7.81092000       0.58090300       0.07519700       0.17749600      -0.67075800
H        4.06548000       7.05338000       3.66697000       0.63692200       1.11206400       0.81607700       0.35207700