LAMMPS (28 Mar 2023 - Development)
KOKKOS mode is enabled (src/KOKKOS/kokkos.cpp:107)
  will use up to 1 GPU(s) per node
  using 1 OpenMP thread(s) per MPI task
package kokkos
# LAMMPS input script

# == SETUP ==
units metal #ps A K  pressure in bars
atom_style atomic

atom_modify map yes
newton on

timer timeout 23:55:00
New timer settings: style=normal  mode=nosync  timeout=23:55:00

# == VARIABLES ==
variable    temp_water equal 330  # Temperature of water system
variable    temp_Cu_mobile equal 310 # Temperatureof the Cu atom (not fixed). 310 K ensures a temperature of 330 K in the outermost Cu atoms.
variable    seed1 equal 256982574
variable    seed2 equal 1008705
variable    stride equal 1000
variable    nsteps equal 2000000 # 1000 ps
variable    tstep equal 0.0005 # 0.5fs

# == DATA ==
boundary p p p #full
read_data Cu_H2O_m175.data
Reading data file ...
  orthogonal box = (0 0 0) to (10.140377 8.7818242 30.131127)
  1 by 1 by 1 MPI processor grid
  reading atoms ...
  246 atoms
  reading velocities ...
  246 velocities
  read_data CPU = 0.039 seconds
mass		1 63.55   # Cu
mass		2 2.0016  # H
mass 		3 15.9994 # O

# == Define GROUPS ==
group H2O type 2 3
150 atoms in group H2O

# == DEFINE FIX Cu layers ==
variable z_fix_bottom equal 13.5 # A
variable z_fix_up equal 16.5# # A
region fixedlayer block  INF INF INF INF ${z_fix_bottom} ${z_fix_up} #
region fixedlayer block  INF INF INF INF 13.5 ${z_fix_up} 
region fixedlayer block  INF INF INF INF 13.5 16.5 

group Cuall type 1
96 atoms in group Cuall
group fixedCu region fixedlayer
32 atoms in group fixedCu
group mobileCu subtract Cuall fixedCu
64 atoms in group mobileCu

# == Fix layers in the middle of the slab ==
fix fissoCubott fixedCu setforce 0 0 0
velocity fixedCu set 0 0 0

# == Define surface layers ==

variable z_surface_inf_low equal 9.0 # A
variable z_surface_inf_high equal 10.6 # A
region surface_inf block  INF INF INF INF ${z_surface_inf_low} ${z_surface_inf_high}
region surface_inf block  INF INF INF INF 9 ${z_surface_inf_high}
region surface_inf block  INF INF INF INF 9 10.6
group surf_inf_Cu region surface_inf
16 atoms in group surf_inf_Cu

variable z_surface_sup_low equal 19.8 # A
variable z_surface_sup_high equal 21.0 # A
region surface_sup block  INF INF INF INF ${z_surface_sup_low} ${z_surface_sup_high}
region surface_sup block  INF INF INF INF 19.8 ${z_surface_sup_high}
region surface_sup block  INF INF INF INF 19.8 21
group surf_sup_Cu region surface_sup
16 atoms in group surf_sup_Cu

# == Define Pair Style ==

pair_style mace no_domain_decomposition
pair_coeff * * Franken_Cu_H2O_m175_RF_1024-lammps.pt Cu H O

# == Define NVT thermostat ==

velocity mobileCu create ${temp_Cu_mobile} ${seed1} mom yes rot yes
velocity mobileCu create 310 ${seed1} mom yes rot yes
velocity mobileCu create 310 256982574 mom yes rot yes
fix NVT_Cu mobileCu nvt temp ${temp_Cu_mobile} ${temp_Cu_mobile} $(100.0*dt)
fix NVT_Cu mobileCu nvt temp 310 ${temp_Cu_mobile} $(100.0*dt)
fix NVT_Cu mobileCu nvt temp 310 310 $(100.0*dt)
fix NVT_Cu mobileCu nvt temp 310 310 0.10000000000000000555

velocity  H2O create ${temp_water} ${seed2}
velocity  H2O create 330 ${seed2}
velocity  H2O create 330 1008705
fix NVT_H2O H2O nvt temp ${temp_water} ${temp_water} $(100.0*dt)
fix NVT_H2O H2O nvt temp 330 ${temp_water} $(100.0*dt)
fix NVT_H2O H2O nvt temp 330 330 $(100.0*dt)
fix NVT_H2O H2O nvt temp 330 330 0.10000000000000000555

# == Compute and Visualization ==

thermo          ${stride}
thermo          1000
thermo_style    custom step pe ke etotal temp press vol
thermo_modify	flush yes
fix 		thermo_print all print ${stride} "$(step) $(pe) $(ke) $(etotal) $(temp) $(press) $(vol)" append thermo.out screen no title "#step pe ke etotal temp press vol"
fix 		thermo_print all print 1000 "$(step) $(pe) $(ke) $(etotal) $(temp) $(press) $(vol)" append thermo.out screen no title "#step pe ke etotal temp press vol"

compute Tmobile mobileCu temp
compute Tsurface_inf surf_inf_Cu temp
compute Tsurface_sup surf_sup_Cu temp
compute Twater H2O temp
compute Tall all temp
compute Press all pressure Tall

fix myat1 mobileCu ave/time 1 1 100 c_Tmobile file temperature_mobile.dat
fix myat2 surf_inf_Cu ave/time 1 1 100 c_Tsurface_inf file temperature_surf_inf.dat
fix myat3 surf_sup_Cu ave/time 1 1 100 c_Tsurface_sup file temperature_surf_sup.dat
fix myat4 H2O ave/time 1 1 100 c_Twater file temperature_water.dat
fix myat5 all ave/time 1 1 100 c_Press[3]  file pressure_all.dat

dump		viewNVT all custom ${stride} Cu_H2O_NVT_m175.dump id type element x y z fx fy fz
dump		viewNVT all custom 1000 Cu_H2O_NVT_m175.dump id type element x y z fx fy fz
dump_modify	viewNVT sort id append yes element Cu H O

# == RUN  NVT ==

timestep ${tstep}
timestep 0.0005
run		${nsteps}
run		2000000
Generated 0 of 3 mixed pair_coeff terms from geometric mixing rule
Neighbor list info ...
  update: every = 1 steps, delay = 0 steps, check = yes
  max neighbors/atom: 2000, page size: 100000
  master list distance cutoff = 14
  ghost atom cutoff = 14
  binsize = 14, bins = 1 1 3
  1 neighbor lists, perpetual/occasional/extra = 1 0 0
  (1) pair mace/kk, perpetual
      attributes: full, newton on, kokkos_device
      pair build: full/bin/kk/device
      stencil: full/bin/3d
      bin: kk/device
Per MPI rank memory allocation (min/avg/max) = 4.832 | 4.832 | 4.832 Mbytes
   Step         PotEng         KinEng         TotEng          Temp          Press          Volume    
         0  -1811.5909      8.880172      -1802.7108      280.40816      3534.9742      2683.2073    
      1000  -1812.6932      8.8071595     -1803.886       278.10266      3505.9098      2683.2073    
      2000  -1812.9175      9.4319619     -1803.4856      297.83197      3754.628       2683.2073    
      3000  -1811.6482      9.3803769     -1802.2678      296.20308      3734.0933      2683.2073    
      4000  -1812.5864      9.5653059     -1803.0211      302.04256      3807.7088      2683.2073    
      5000  -1811.0292      8.0391568     -1802.99        253.85152      3200.1871      2683.2073    
      6000  -1811.5411      9.1430656     -1802.398       288.70953      3639.6256      2683.2073    
      7000  -1811.5374      9.2117705     -1802.3256      290.87901      3666.9753      2683.2073    
      8000  -1811.9743      8.0117855     -1803.9625      252.98723      3189.2913      2683.2073    
      9000  -1812.254       8.7090981     -1803.5449      275.00618      3466.874       2683.2073    
     10000  -1812.722       9.2343749     -1803.4876      291.59279      3675.9735      2683.2073    
     11000  -1812.7137      8.4718277     -1804.2418      267.51392      3372.4225      2683.2073    
     12000  -1812.7059      8.715524      -1803.9903      275.20909      3469.4319      2683.2073    
     13000  -1811.9485      9.3136147     -1802.6349      294.09494      3707.5169      2683.2073    
     14000  -1811.6613      8.6484393     -1803.0128      273.09077      3442.7272      2683.2073    
     15000  -1812.7004      9.3748627     -1803.3256      296.02895      3731.8982      2683.2073    
     16000  -1812.8456      8.6591796     -1804.1864      273.42991      3447.0027      2683.2073    
     17000  -1812.9177      9.0061458     -1803.9116      284.38603      3585.1212      2683.2073    
     18000  -1812.4259      8.4834013     -1803.9425      267.87938      3377.0297      2683.2073    
     19000  -1812.392       8.799172      -1803.5928      277.85044      3502.7301      2683.2073    
     20000  -1812.5369      8.8766631     -1803.6603      280.29736      3533.5774      2683.2073    
     21000  -1811.9332      8.4990631     -1803.4342      268.37393      3383.2643      2683.2073    
     22000  -1812.7582      8.859211      -1803.899       279.74628      3526.6301      2683.2073    
     23000  -1812.1256      9.1208908     -1803.0047      288.00932      3630.7983      2683.2073    
     24000  -1811.0616      8.7612684     -1802.3003      276.65356      3487.6416      2683.2073    
     25000  -1812.2864      8.4301535     -1803.8562      266.19798      3355.8331      2683.2073    
     26000  -1811.4507      8.5405542     -1802.9101      269.68409      3399.7809      2683.2073    
     27000  -1812.2672      8.1915402     -1804.0757      258.66332      3260.8471      2683.2073    
     28000  -1811.8786      8.7321407     -1803.1465      275.7338       3476.0466      2683.2073    
     29000  -1812.201       9.0694663     -1803.1315      286.38549      3610.3275      2683.2073    
     30000  -1812.2492      8.8789561     -1803.3702      280.36977      3534.4902      2683.2073    
     31000  -1812.716       9.5550189     -1803.161       301.71773      3803.6139      2683.2073    
     32000  -1812.0209      8.9718174     -1803.0491      283.30204      3571.4559      2683.2073    
     33000  -1811.2281      9.1478319     -1802.0802      288.86003      3641.5229      2683.2073    
     34000  -1812.3741      9.760382      -1802.6137      308.20245      3885.3638      2683.2073    
     35000  -1812.8342      9.7613841     -1803.0728      308.2341       3885.7627      2683.2073    
     36000  -1811.9511      8.6414887     -1803.3096      272.87129      3439.9604      2683.2073    
     37000  -1813.4655      8.8013197     -1804.6642      277.91825      3503.5851      2683.2073    
     38000  -1811.784       7.9551295     -1803.8289      251.1982       3166.7379      2683.2073    
     39000  -1812.4804      8.8765718     -1803.6038      280.29448      3533.541       2683.2073    
     40000  -1813.223       8.9272867     -1804.2957      281.8959       3553.7294      2683.2073    
     41000  -1812.5357      9.0485797     -1803.4871      285.72595      3602.0131      2683.2073    
     42000  -1811.9136      8.5052244     -1803.4084      268.56849      3385.7169      2683.2073    
     43000  -1811.9423      10.03807      -1801.9042      316.97098      3995.9044      2683.2073    
     44000  -1812.0478      9.0906482     -1802.9572      287.05435      3618.7595      2683.2073    
     45000  -1811.9914      8.347126      -1803.6443      263.57623      3322.7819      2683.2073    
     46000  -1812.619       8.6019798     -1804.017       271.62372      3424.2329      2683.2073    
     47000  -1811.1524      9.3459885     -1801.8064      295.1172       3720.4041      2683.2073    
     48000  -1811.9661      9.529948      -1802.4361      300.92607      3793.6338      2683.2073    
     49000  -1811.758       9.277334      -1802.4806      292.9493       3693.0744      2683.2073    
     50000  -1811.3477      9.0564594     -1802.2912      285.97477      3605.1498      2683.2073    
     51000  -1811.4228      8.3962074     -1803.0266      265.12607      3342.32        2683.2073    
     52000  -1812.1206      8.7983072     -1803.3223      277.82313      3502.3859      2683.2073    
     53000  -1812.7413      9.4944638     -1803.2469      299.80559      3779.5084      2683.2073    
     54000  -1811.5272      8.6923037     -1802.8349      274.47587      3460.1885      2683.2073    
     55000  -1812.5066      8.2677832     -1804.2388      261.07083      3291.1975      2683.2073    
     56000  -1813.2965      9.2202792     -1804.0763      291.14769      3670.3624      2683.2073    
     57000  -1812.142       9.1535428     -1802.9884      289.04036      3643.7963      2683.2073    
     58000  -1812.8347      9.1719497     -1803.6627      289.6216       3651.1236      2683.2073    
     59000  -1810.9992      8.4397795     -1802.5594      266.50194      3359.6649      2683.2073    
     60000  -1812.1599      9.3543403     -1802.8056      295.38092      3723.7287      2683.2073    
     61000  -1812.712       8.710778      -1804.0012      275.05923      3467.5427      2683.2073    
     62000  -1812.4022      9.0748933     -1803.3273      286.55685      3612.4879      2683.2073    
     63000  -1812.9162      9.3032989     -1803.6129      293.76919      3703.4104      2683.2073    
     64000  -1811.991       9.2605086     -1802.7305      292.41801      3686.3767      2683.2073    
     65000  -1812.5973      9.25392       -1803.3433      292.20996      3683.7539      2683.2073    
     66000  -1813.1218      9.0506349     -1804.0711      285.79085      3602.8312      2683.2073    
     67000  -1812.5689      9.4626916     -1803.1062      298.80232      3766.8607      2683.2073    
     68000  -1811.8594      8.170171      -1803.6892      257.98854      3252.3406      2683.2073    
     69000  -1812.6654      8.8496198     -1803.8157      279.44342      3522.8121      2683.2073    
     70000  -1812.9122      9.4046825     -1803.5076      296.97057      3743.7687      2683.2073    
     71000  -1811.6542      9.2151024     -1802.4391      290.98422      3668.3016      2683.2073    
     72000  -1812.971       8.5842022     -1804.3868      271.06236      3417.156       2683.2073    
     73000  -1811.9199      9.0179715     -1802.9019      284.75944      3589.8287      2683.2073    
     74000  -1812.0149      8.8423732     -1803.1725      279.21459      3519.9274      2683.2073    
     75000  -1811.4741      8.6768099     -1802.7973      273.98662      3454.0208      2683.2073    
     76000  -1811.6234      9.3682726     -1802.2551      295.82086      3729.2748      2683.2073    
     77000  -1811.2913      8.6961913     -1802.5951      274.59863      3461.7361      2683.2073    
     78000  -1813.4089      8.9042976     -1804.5046      281.16997      3544.578       2683.2073    
     79000  -1812.3104      8.7582646     -1803.5522      276.55871      3486.4459      2683.2073    
     80000  -1812.2087      8.5977167     -1803.611       271.48911      3422.5358      2683.2073    
     81000  -1812.5839      9.0409508     -1803.543       285.48506      3598.9762      2683.2073    
     82000  -1813.214       10.411315     -1802.8027      328.7569       4144.4841      2683.2073    
     83000  -1813.879       7.894557      -1805.9845      249.28551      3142.6255      2683.2073    
     84000  -1812.1257      8.9359641     -1803.1898      282.16991      3557.1836      2683.2073    
     85000  -1812.4353      8.0526022     -1804.3827      254.27609      3205.5394      2683.2073    
     86000  -1812.6669      8.3316844     -1804.3352      263.08863      3316.635       2683.2073    
     87000  -1812.2151      8.8529412     -1803.3621      279.5483       3524.1343      2683.2073    
     88000  -1811.6407      9.3985206     -1802.2421      296.776        3741.3158      2683.2073    
     89000  -1812.4298      10.164851     -1802.2649      320.97434      4046.3729      2683.2073    
     90000  -1812.8674      8.6873068     -1804.1801      274.31808      3458.1994      2683.2073    
     91000  -1812.2107      8.7564091     -1803.4543      276.50012      3485.7073      2683.2073    
     92000  -1813.8709      8.0610128     -1805.8099      254.54167      3208.8874      2683.2073    
     93000  -1812.2986      8.3056241     -1803.993       262.26573      3306.2611      2683.2073    
     94000  -1812.559       8.4079371     -1804.1511      265.49646      3346.9893      2683.2073    
     95000  -1812.5714      9.1622455     -1803.4092      289.31517      3647.2606      2683.2073    
     96000  -1812.0529      8.5428024     -1803.5101      269.75508      3400.6758      2683.2073    
     97000  -1812.7738      8.8659395     -1803.9078      279.95875      3529.3086      2683.2073    
     98000  -1812.9787      7.846295      -1805.1324      247.76155      3123.4137      2683.2073    
     99000  -1813.5287      8.2823754     -1805.2464      261.53161      3297.0063      2683.2073    
    100000  -1813.1111      9.3389301     -1803.7722      294.89431      3717.5943      2683.2073    
    101000  -1812.639       9.0969521     -1803.5421      287.2534       3621.2689      2683.2073    
    102000  -1812.8772      9.2612211     -1803.616       292.44051      3686.6603      2683.2073    
    103000  -1811.7824      8.8451406     -1802.9373      279.30198      3521.0291      2683.2073    
    104000  -1812.1794      7.799515      -1804.3799      246.28438      3104.7917      2683.2073    
    105000  -1811.6614      8.6579852     -1803.0034      273.3922       3446.5272      2683.2073    
    106000  -1812.5718      8.3118912     -1804.2599      262.46363      3308.7558      2683.2073    
    107000  -1811.4033      9.260937      -1802.1424      292.43154      3686.5472      2683.2073    
    108000  -1812.2215      9.6801031     -1802.5414      305.6675       3853.4067      2683.2073    
    109000  -1812.4594      8.938013      -1803.5214      282.2346       3557.9993      2683.2073    
    110000  -1812.9933      8.7281441     -1804.2651      275.6076       3474.4557      2683.2073    
    111000  -1812.1457      9.2445248     -1802.9012      291.91329      3680.0139      2683.2073    
    112000  -1812.5135      7.7184476     -1804.7951      243.72453      3072.5208      2683.2073    
    113000  -1811.5762      8.7647977     -1802.8114      276.765        3489.0466      2683.2073    
    114000  -1811.5474      8.4571411     -1803.0902      267.05017      3366.5762      2683.2073    
    115000  -1812.6299      7.8734844     -1804.7564      248.62011      3134.2371      2683.2073    
    116000  -1811.7716      8.3398627     -1803.4318      263.34688      3319.8906      2683.2073    
    117000  -1812.4267      9.0156        -1803.4111      284.68456      3588.8847      2683.2073    
    118000  -1812.4667      8.958747      -1803.508       282.88932      3566.253       2683.2073    
    119000  -1811.9837      8.6937837     -1803.2899      274.5226       3460.7777      2683.2073    
    120000  -1812.442       8.5688126     -1803.8732      270.5764       3411.0298      2683.2073    
    121000  -1811.9781      8.2451726     -1803.733       260.35686      3282.1968      2683.2073    
    122000  -1812.373       8.5108951     -1803.8621      268.74755      3387.9743      2683.2073    
    123000  -1811.8991      8.3859467     -1803.5132      264.80207      3338.2355      2683.2073    
    124000  -1810.8552      8.499038      -1802.3562      268.37314      3383.2543      2683.2073    
    125000  -1811.8553      8.4499523     -1803.4054      266.82317      3363.7145      2683.2073    
    126000  -1810.7186      8.3837789     -1802.3348      264.73362      3337.3725      2683.2073    
    127000  -1812.1944      9.2359443     -1802.9585      291.64235      3676.5983      2683.2073    
    128000  -1811.693       9.0864737     -1802.6066      286.92253      3617.0977      2683.2073    
    129000  -1811.9217      9.3674104     -1802.5542      295.79364      3728.9316      2683.2073    
    130000  -1812.6428      9.5982778     -1803.0445      303.08371      3820.8342      2683.2073    
    131000  -1812.547       8.1552546     -1804.3917      257.51753      3246.4027      2683.2073    
    132000  -1812.5111      9.1718565     -1803.3393      289.61865      3651.0865      2683.2073    
    133000  -1812.6174      9.2596654     -1803.3578      292.39138      3686.041       2683.2073    
    134000  -1812.812       8.5663046     -1804.2457      270.49721      3410.0314      2683.2073    
    135000  -1812.7353      8.2605295     -1804.4747      260.84178      3288.31        2683.2073    
    136000  -1812.6652      8.4426783     -1804.2225      266.59348      3360.8189      2683.2073    
    137000  -1812.8519      8.6014945     -1804.2504      271.6084       3424.0397      2683.2073    
    138000  -1811.3038      7.9071786     -1803.3966      249.68407      3147.6499      2683.2073    
    139000  -1813.2158      8.8838583     -1804.3319      280.52456      3536.4416      2683.2073    
    140000  -1812.368       9.2065934     -1803.1614      290.71554      3664.9144      2683.2073    
    141000  -1812.7372      8.9591893     -1803.778       282.90329      3566.429       2683.2073    
    142000  -1813.4086      9.0305486     -1804.378       285.15659      3594.8354      2683.2073    
    143000  -1812.787       8.228904      -1804.5581      259.84315      3275.7207      2683.2073    
    144000  -1812.4781      9.3962948     -1803.0818      296.70571      3740.4298      2683.2073    
    145000  -1811.4053      9.2279081     -1802.1774      291.38859      3673.3992      2683.2073    
    146000  -1813.1502      8.2144255     -1804.9357      259.38596      3269.9572      2683.2073    
    147000  -1812.982       9.2672062     -1803.7148      292.6295       3689.0428      2683.2073    
    148000  -1812.2867      8.6878182     -1803.5989      274.33423      3458.403       2683.2073    
    149000  -1812.006       8.3238249     -1803.6822      262.84046      3313.5064      2683.2073    
    150000  -1812.1375      9.369094      -1802.7684      295.8468       3729.6018      2683.2073    
    151000  -1811.3444      8.1430602     -1803.2014      257.13247      3241.5485      2683.2073    
    152000  -1811.4539      8.834672      -1802.6193      278.97142      3516.8618      2683.2073    
    153000  -1811.9132      9.9297125     -1801.9835      313.54938      3952.77        2683.2073    
    154000  -1811.9516      9.6163333     -1802.3352      303.65385      3828.0216      2683.2073    
    155000  -1812.2278      9.7917308     -1802.436       309.19235      3897.843       2683.2073    
    156000  -1813.7012      8.1064821     -1805.5947      255.97745      3226.9876      2683.2073    
    157000  -1811.8726      9.0831047     -1802.7894      286.81615      3615.7566      2683.2073    
    158000  -1811.2896      8.6959712     -1802.5937      274.59168      3461.6485      2683.2073    
    159000  -1812.4854      8.5687822     -1803.9166      270.57545      3411.0177      2683.2073    
    160000  -1812.7889      7.9537141     -1804.8352      251.15351      3166.1745      2683.2073    
    161000  -1811.2218      8.8847394     -1802.3371      280.55239      3536.7924      2683.2073    
    162000  -1811.9834      9.124807      -1802.8586      288.13298      3632.3573      2683.2073    
    163000  -1812.0254      9.0903226     -1802.9351      287.04407      3618.6299      2683.2073    
    164000  -1811.662       8.5838229     -1803.0781      271.05038      3417.005       2683.2073    
    165000  -1811.3526      8.2441323     -1803.1085      260.32401      3281.7827      2683.2073    
    166000  -1811.8661      8.6481013     -1803.2179      273.0801       3442.5927      2683.2073    
    167000  -1812.1544      9.4401851     -1802.7142      298.09163      3757.9014      2683.2073    
    168000  -1812.5045      9.5257007     -1802.9788      300.79195      3791.943       2683.2073    
    169000  -1812.1498      8.868032      -1803.2817      280.02482      3530.1415      2683.2073    
    170000  -1811.6847      8.3090617     -1803.3757      262.37428      3307.6295      2683.2073    
    171000  -1813.2305      9.5788207     -1803.6516      302.46931      3813.0887      2683.2073    
    172000  -1812.4113      8.8860815     -1803.5252      280.59477      3537.3266      2683.2073    
    173000  -1812.3841      8.2266897     -1804.1574      259.77323      3274.8392      2683.2073    
    174000  -1812.7471      8.6484686     -1804.0986      273.09169      3442.7389      2683.2073    
    175000  -1813.2695      8.5260147     -1804.7435      269.22498      3393.993       2683.2073    
    176000  -1813.1376      9.8925568     -1803.245       312.37612      3937.9792      2683.2073    
    177000  -1812.4672      9.3548161     -1803.1124      295.39595      3723.9181      2683.2073    
    178000  -1812.7367      9.5556657     -1803.181       301.73815      3803.8713      2683.2073    
    179000  -1812.6405      9.6217514     -1803.0188      303.82493      3830.1784      2683.2073    
    180000  -1813.1988      8.9518119     -1804.247       282.67033      3563.4922      2683.2073    
    181000  -1813.3861      9.348027      -1804.0381      295.18157      3721.2156      2683.2073    
    182000  -1812.9818      8.9607676     -1804.021       282.95312      3567.0573      2683.2073    
    183000  -1812.395       9.4996688     -1802.8954      299.96994      3781.5804      2683.2073    
    184000  -1811.6682      9.9876135     -1801.6806      315.37772      3975.8189      2683.2073    
    185000  -1811.855       9.105246      -1802.7498      287.5153       3624.5705      2683.2073    
    186000  -1812.089       9.2934822     -1802.7955      293.45921      3699.5026      2683.2073    
    187000  -1812.5949      8.9401265     -1803.6548      282.30134      3558.8406      2683.2073    
    188000  -1812.318       9.2919774     -1803.026       293.4117       3698.9036      2683.2073    
    189000  -1812.031       8.5240656     -1803.507       269.16343      3393.2171      2683.2073    
    190000  -1812.7538      9.1872162     -1803.5666      290.10366      3657.2008      2683.2073    
    191000  -1811.9349      8.9245729     -1803.0104      281.81021      3552.6491      2683.2073    
    192000  -1812.8103      9.0967619     -1803.7136      287.2474       3621.1932      2683.2073    
    193000  -1810.7605      8.3633654     -1802.3971      264.08902      3329.2464      2683.2073    
    194000  -1811.9641      9.5361562     -1802.4279      301.1221       3796.1051      2683.2073    
    195000  -1812.4142      9.6237551     -1802.7905      303.8882       3830.976       2683.2073    
    196000  -1812.1333      8.7953877     -1803.3379      277.73094      3501.2237      2683.2073    
    197000  -1812.1061      8.3002586     -1803.8059      262.09631      3304.1252      2683.2073    
    198000  -1812.2623      8.5303977     -1803.7319      269.36338      3395.7378      2683.2073    
    199000  -1812.1676      9.3499289     -1802.8177      295.24163      3721.9727      2683.2073    
    200000  -1811.7784      9.0438792     -1802.7345      285.57753      3600.1419      2683.2073    
    201000  -1810.9434      9.3820885     -1801.5613      296.25712      3734.7746      2683.2073    
    202000  -1810.9313      9.1667212     -1801.7646      289.45649      3649.0422      2683.2073    
    203000  -1810.862       9.6215075     -1801.2405      303.81723      3830.0813      2683.2073    
    204000  -1810.8285      7.7074928     -1803.121       243.37861      3068.1599      2683.2073    
    205000  -1812.8817      9.2839755     -1803.5978      293.15902      3695.7183      2683.2073    
    206000  -1812.2326      8.8383391     -1803.3943      279.08721      3518.3216      2683.2073    
    207000  -1813.036       9.3621947     -1803.6738      295.62894      3726.8553      2683.2073    
    208000  -1812.1884      8.7305886     -1803.4578      275.68479      3475.4288      2683.2073    
    209000  -1813.8013      7.9737036     -1805.8276      251.78472      3174.1318      2683.2073    
    210000  -1813.0062      9.175664      -1803.8305      289.73888      3652.6022      2683.2073    
    211000  -1811.8593      9.0880849     -1802.7712      286.97341      3617.7391      2683.2073    
    212000  -1812.9466      8.2873988     -1804.6592      261.69023      3299.006       2683.2073    
    213000  -1812.5207      8.3657005     -1804.155       264.16276      3330.176       2683.2073    
    214000  -1812.3295      9.3008983     -1803.0286      293.69339      3702.4548      2683.2073    
    215000  -1813.2007      8.5992461     -1804.6014      271.5374       3423.1446      2683.2073    
    216000  -1811.7486      8.0706351     -1803.6779      254.84551      3212.7178      2683.2073    
    217000  -1811.6853      9.4603615     -1802.2249      298.72874      3765.9331      2683.2073    
    218000  -1811.4656      9.3119794     -1802.1537      294.0433       3706.8659      2683.2073    
    219000  -1811.9941      9.0542499     -1802.9399      285.905        3604.2702      2683.2073    
    220000  -1812.7223      9.0220926     -1803.7002      284.88957      3591.4692      2683.2073    
    221000  -1814.0471      9.5558116     -1804.4913      301.74276      3803.9294      2683.2073    
    222000  -1812.6555      8.4573742     -1804.1981      267.05753      3366.669       2683.2073    
    223000  -1811.7508      8.3880856     -1803.3627      264.86961      3339.0869      2683.2073    
    224000  -1811.9595      9.4352923     -1802.5242      297.93713      3755.9537      2683.2073    
    225000  -1813.1652      9.2456137     -1803.9196      291.94767      3680.4474      2683.2073    
    226000  -1812.7866      9.0047427     -1803.7819      284.34172      3584.5627      2683.2073    
    227000  -1812.5821      8.2222855     -1804.3598      259.63416      3273.0861      2683.2073    
    228000  -1812.4998      9.9870075     -1802.5128      315.35858      3975.5777      2683.2073    
    229000  -1812.6464      8.7136936     -1803.9327      275.1513       3468.7033      2683.2073    
    230000  -1812.9232      8.6492549     -1804.274       273.11652      3443.0519      2683.2073    
    231000  -1812.7097      8.5004541     -1804.2093      268.41786      3383.818       2683.2073    
    232000  -1812.2802      8.7204794     -1803.5597      275.36557      3471.4046      2683.2073    
    233000  -1812.5392      8.0799948     -1804.4592      255.14106      3216.4437      2683.2073    
    234000  -1812.235       8.1944036     -1804.0406      258.75374      3261.987       2683.2073    
    235000  -1812.4308      8.9350345     -1803.4957      282.14055      3556.8136      2683.2073    
    236000  -1811.93        8.4594064     -1803.4706      267.1217       3367.4779      2683.2073    
    237000  -1811.7063      8.6443416     -1803.062       272.96138      3441.096       2683.2073    
    238000  -1812.1971      8.7876437     -1803.4095      277.48641      3498.141       2683.2073    
    239000  -1811.3958      9.3074295     -1802.0884      293.89962      3705.0547      2683.2073    
    240000  -1812.1551      10.431329     -1801.7237      329.38887      4152.451       2683.2073    
    241000  -1812.3865      8.3275369     -1804.059       262.95767      3314.984       2683.2073    
    242000  -1812.6506      8.0542344     -1804.5963      254.32763      3206.1891      2683.2073    
    243000  -1811.707       9.1250739     -1802.5819      288.1414       3632.4635      2683.2073    
    244000  -1811.6344      9.4919965     -1802.1424      299.72768      3778.5262      2683.2073    
    245000  -1812.7725      8.3391214     -1804.4334      263.32347      3319.5955      2683.2073    
    246000  -1811.8684      8.3245264     -1803.5439      262.86261      3313.7856      2683.2073    
    247000  -1810.8318      9.4920757     -1801.3397      299.73018      3778.5577      2683.2073    
    248000  -1811.8357      8.6240254     -1803.2116      272.31985      3433.0087      2683.2073    
    249000  -1812.3236      9.4939133     -1802.8297      299.7882       3779.2893      2683.2073    
    250000  -1812.3504      8.561363      -1803.789       270.34117      3408.0643      2683.2073    
    251000  -1811.2377      7.9790061     -1803.2587      251.95215      3176.2426      2683.2073    
    252000  -1810.4164      8.512115      -1801.9043      268.78607      3388.4599      2683.2073    
    253000  -1811.4752      9.7454406     -1801.7297      307.73065      3879.416       2683.2073    
    254000  -1812.6796      9.1042263     -1803.5753      287.4831       3624.1646      2683.2073    
    255000  -1812.6877      8.4605197     -1804.2272      267.15685      3367.9211      2683.2073    
    256000  -1812.4362      9.9537603     -1802.4824      314.30874      3962.3428      2683.2073    
    257000  -1811.4454      9.1769747     -1802.2684      289.78027      3653.1239      2683.2073    
    258000  -1811.2693      9.0366848     -1802.2326      285.35035      3597.278       2683.2073    
    259000  -1812.124       8.835392      -1803.2886      278.99415      3517.1484      2683.2073    
    260000  -1811.7578      8.3014043     -1803.4564      262.13248      3304.5813      2683.2073    
    261000  -1811.57        9.3970969     -1802.1729      296.73104      3740.7491      2683.2073    
    262000  -1813.119       9.5333311     -1803.5857      301.03289      3794.9805      2683.2073    
    263000  -1812.3447      9.5409709     -1802.8038      301.27414      3798.0217      2683.2073    
    264000  -1812.3481      8.9672135     -1803.3809      283.15666      3569.6232      2683.2073    
    265000  -1812.994       7.6220489     -1805.372       240.68056      3034.1469      2683.2073    
    266000  -1813.0773      7.9752161     -1805.1021      251.83248      3174.7339      2683.2073    
    267000  -1812.7692      9.5644448     -1803.2048      302.01537      3807.3661      2683.2073    
    268000  -1812.7375      9.0959794     -1803.6416      287.22269      3620.8817      2683.2073    
    269000  -1812.449       9.1322228     -1803.3168      288.36714      3635.3093      2683.2073    
    270000  -1812.0395      8.3393541     -1803.7001      263.33082      3319.6881      2683.2073    
    271000  -1813.267       8.4016934     -1804.8653      265.2993       3344.5038      2683.2073    
    272000  -1810.9655      8.5200532     -1802.4455      269.03673      3391.6199      2683.2073    
    273000  -1811.745       8.825953      -1802.9191      278.6961       3513.391       2683.2073    
    274000  -1812.1861      8.9064787     -1803.2796      281.23885      3545.4462      2683.2073    
    275000  -1812.4286      9.1295966     -1803.299       288.28422      3634.2639      2683.2073    
    276000  -1812.156       9.5585206     -1802.5975      301.8283       3805.0078      2683.2073    
    277000  -1812.1915      9.3992993     -1802.7922      296.80059      3741.6258      2683.2073    
    278000  -1812.9057      8.4907377     -1804.415       268.11104      3379.9502      2683.2073    
    279000  -1812.1017      8.3553945     -1803.7463      263.83733      3326.0734      2683.2073    
    280000  -1812.3742      8.6418704     -1803.7323      272.88334      3440.1123      2683.2073    
    281000  -1813.3404      9.7504356     -1803.59        307.88838      3881.4044      2683.2073    
    282000  -1812.0776      8.2658202     -1803.8118      261.00885      3290.4161      2683.2073    
    283000  -1813.0598      8.513735      -1804.5461      268.83722      3389.1048      2683.2073    
    284000  -1812.3166      8.5987196     -1803.7179      271.52077      3422.935       2683.2073    
    285000  -1812.5069      8.7571388     -1803.7498      276.52316      3485.9978      2683.2073    
    286000  -1812.8458      9.3097052     -1803.5361      293.97149      3705.9606      2683.2073    
    287000  -1811.369       8.1642614     -1803.2047      257.80194      3249.9881      2683.2073    
    288000  -1812.2346      8.2543132     -1803.9803      260.64549      3285.8355      2683.2073    
    289000  -1811.7594      8.5279989     -1803.2314      269.28764      3394.7829      2683.2073    
    290000  -1812.2458      10.481508     -1801.7643      330.97337      4172.426       2683.2073    
    291000  -1813.2044      8.7069175     -1804.4975      274.93733      3466.0059      2683.2073    
    292000  -1812.5519      9.8650712     -1802.6868      311.50821      3927.0379      2683.2073    
    293000  -1811.9673      9.0742191     -1802.8931      286.53557      3612.2195      2683.2073    
    294000  -1812.6303      8.1663269     -1804.4639      257.86716      3250.8103      2683.2073    
    295000  -1812.3523      8.4709617     -1803.8813      267.48658      3372.0778      2683.2073    
    296000  -1812.6379      9.7152303     -1802.9226      306.77671      3867.39        2683.2073    
    297000  -1811.6137      9.0466951     -1802.567       285.66644      3601.2629      2683.2073    
    298000  -1812.1344      8.8539858     -1803.2804      279.58129      3524.5501      2683.2073    
    299000  -1812.8903      7.9214888     -1804.9688      250.13594      3153.3464      2683.2073    
    300000  -1813.5524      8.793817      -1804.7585      277.68134      3500.5984      2683.2073    
    301000  -1812.0666      9.3125286     -1802.7541      294.06064      3707.0846      2683.2073    
    302000  -1812.2797      8.8114662     -1803.4682      278.23865      3507.6241      2683.2073    
    303000  -1811.9126      9.5535776     -1802.3591      301.67221      3803.0401      2683.2073    
    304000  -1811.3256      8.6820528     -1802.6435      274.15218      3456.1079      2683.2073    
    305000  -1812.6565      9.3022183     -1803.3543      293.73507      3702.9803      2683.2073    
    306000  -1812.5743      9.4042553     -1803.17        296.95708      3743.5986      2683.2073    
    307000  -1811.2458      8.8576521     -1802.3881      279.69706      3526.0096      2683.2073    
    308000  -1813.5854      8.5649391     -1805.0204      270.45409      3409.4879      2683.2073    
    309000  -1813.0981      8.693843      -1804.4043      274.52447      3460.8013      2683.2073    
    310000  -1812.2258      9.8740452     -1802.3517      311.79158      3930.6102      2683.2073    
    311000  -1812.2939      9.0576727     -1803.2362      286.01308      3605.6328      2683.2073    
    312000  -1812.2735      8.7841933     -1803.4893      277.37746      3496.7675      2683.2073    
    313000  -1812.1748      8.1903459     -1803.9844      258.62561      3260.3717      2683.2073    
    314000  -1812.5786      8.8176592     -1803.7609      278.4342       3510.0894      2683.2073    
    315000  -1811.3877      7.7219794     -1803.6657      243.83605      3073.9267      2683.2073    
    316000  -1812.9661      8.8577926     -1804.1083      279.70149      3526.0655      2683.2073    
    317000  -1812.1245      8.3659382     -1803.7585      264.17026      3330.2706      2683.2073    
    318000  -1812.9157      8.6125577     -1804.3032      271.95774      3428.4436      2683.2073    
    319000  -1812.4034      8.9248708     -1803.4785      281.81961      3552.7677      2683.2073    
    320000  -1812.2518      9.6588796     -1802.5929      304.99732      3844.9582      2683.2073    
    321000  -1813.3006      8.0241719     -1805.2764      253.37835      3194.222       2683.2073    
    322000  -1813.2924      8.3052988     -1804.9871      262.25546      3306.1316      2683.2073    
    323000  -1812.7614      8.6611264     -1804.1003      273.49139      3447.7776      2683.2073    
    324000  -1812.0072      8.6694024     -1803.3378      273.75272      3451.0721      2683.2073    
    325000  -1812           9.044198      -1802.9558      285.58759      3600.2688      2683.2073    
    326000  -1812.3032      8.6798244     -1803.6234      274.08181      3455.2208      2683.2073    
    327000  -1812.8223      9.5683273     -1803.254       302.13797      3808.9116      2683.2073    
    328000  -1812.3362      8.4801008     -1803.8561      267.77516      3375.7159      2683.2073    
    329000  -1813.0441      9.0162738     -1804.0278      284.70584      3589.1529      2683.2073    
    330000  -1812.2857      8.5695718     -1803.7161      270.60038      3411.332       2683.2073    
    331000  -1813.599       8.4149172     -1805.1841      265.71687      3349.7679      2683.2073    
    332000  -1813.1814      8.4984538     -1804.683       268.35469      3383.0217      2683.2073    
    333000  -1811.9099      9.3708733     -1802.539       295.90298      3730.3101      2683.2073    
    334000  -1813.0694      9.3866803     -1803.6828      296.40212      3736.6025      2683.2073    
    335000  -1813.1985      8.7420038     -1804.4565      276.04524      3479.9729      2683.2073    
    336000  -1812.079       8.5157906     -1803.5632      268.90213      3389.9231      2683.2073    
    337000  -1812.0553      9.3447861     -1802.7105      295.07923      3719.9254      2683.2073    
    338000  -1811.5302      8.4651038     -1803.0651      267.3016       3369.7459      2683.2073    
    339000  -1812.4615      8.4578159     -1804.0037      267.07147      3366.8448      2683.2073    
    340000  -1813.1426      8.2750373     -1804.8676      261.2999       3294.0852      2683.2073    
    341000  -1812.2846      8.533343      -1803.7513      269.45639      3396.9103      2683.2073    
    342000  -1811.852       8.9115007     -1802.9405      281.39743      3547.4454      2683.2073    
    343000  -1811.6355      8.629843      -1803.0057      272.50356      3435.3245      2683.2073    
    344000  -1812.5946      8.6651435     -1803.9295      273.61823      3449.3767      2683.2073    
    345000  -1812.7154      7.6830611     -1805.0323      242.60713      3058.4343      2683.2073    
    346000  -1812.2703      8.9363893     -1803.3339      282.18333      3557.3529      2683.2073    
    347000  -1812.1631      8.466638      -1803.6964      267.35005      3370.3566      2683.2073    
    348000  -1811.902       8.5845633     -1803.3174      271.07376      3417.2998      2683.2073    
    349000  -1813.0092      8.5356395     -1804.4736      269.5289       3397.8244      2683.2073    
    350000  -1812.2068      9.0787122     -1803.128       286.67745      3614.0081      2683.2073    
    351000  -1812.1403      9.0763776     -1803.064       286.60373      3613.0787      2683.2073    
    352000  -1812.1832      9.2257789     -1802.9574      291.32135      3672.5517      2683.2073    
    353000  -1812.3713      8.6471842     -1803.7242      273.05114      3442.2276      2683.2073    
    354000  -1812.4217      8.6081187     -1803.8135      271.81757      3426.6766      2683.2073    
    355000  -1812.4254      8.5402465     -1803.8852      269.67438      3399.6584      2683.2073    
    356000  -1812.209       9.8760408     -1802.333       311.8546       3931.4046      2683.2073    
    357000  -1811.5119      9.4013203     -1802.1106      296.8644       3742.4303      2683.2073    
    358000  -1812.5228      8.7352367     -1803.7876      275.83156      3477.2791      2683.2073    
    359000  -1811.8092      8.2060441     -1803.6031      259.12131      3266.6208      2683.2073    
    360000  -1812.2374      8.6998035     -1803.5376      274.71269      3463.174       2683.2073    
    361000  -1813.2116      8.5252107     -1804.6864      269.19959      3393.673       2683.2073    
    362000  -1812.0331      9.2355612     -1802.7975      291.63025      3676.4457      2683.2073    
    363000  -1812.7277      8.615585      -1804.1121      272.05333      3429.6487      2683.2073    
    364000  -1812.2883      7.8499866     -1804.4383      247.87812      3124.8832      2683.2073    
    365000  -1812.1052      8.5721373     -1803.5331      270.68139      3412.3533      2683.2073    
    366000  -1812.1777      9.7026815     -1802.475       306.38045      3862.3946      2683.2073    
    367000  -1812.1656      8.4214128     -1803.7442      265.92198      3352.3537      2683.2073    
    368000  -1812.9616      9.8391825     -1803.1224      310.69073      3916.7323      2683.2073    
    369000  -1812.0632      8.4904041     -1803.5728      268.10051      3379.8174      2683.2073    
    370000  -1811.6066      8.352625      -1803.254       263.74987      3324.9709      2683.2073    
    371000  -1811.7396      9.5026424     -1802.237       300.06384      3782.7641      2683.2073    
    372000  -1812.0414      8.9614745     -1803.08        282.97545      3567.3387      2683.2073    
    373000  -1812.6304      8.0032534     -1804.6271      252.71781      3185.8948      2683.2073    
    374000  -1812.3594      8.7385035     -1803.6209      275.93471      3478.5795      2683.2073    
    375000  -1812.2278      8.8215574     -1803.4063      278.5573       3511.6412      2683.2073    
    376000  -1811.6676      9.1282995     -1802.5393      288.24326      3633.7476      2683.2073    
    377000  -1812.0187      9.3517245     -1802.667       295.29832      3722.6875      2683.2073    
    378000  -1811.653       9.2502948     -1802.4027      292.09549      3682.3108      2683.2073    
    379000  -1812.2689      9.0037381     -1803.2652      284.31         3584.1628      2683.2073    
    380000  -1811.0236      8.8531631     -1802.1705      279.55531      3524.2226      2683.2073    
    381000  -1811.4         8.9488943     -1802.4511      282.5782       3562.3308      2683.2073    
    382000  -1812.7248      8.292804      -1804.432       261.86091      3301.1577      2683.2073    
    383000  -1813.042       9.0679755     -1803.974       286.33841      3609.7341      2683.2073    
    384000  -1811.117       9.6337852     -1801.4832      304.20492      3834.9687      2683.2073    
    385000  -1811.8817      8.7834014     -1803.0983      277.35245      3496.4522      2683.2073    
    386000  -1811.8631      8.372196      -1803.4909      264.36787      3332.7617      2683.2073    
    387000  -1811.7215      8.5246164     -1803.1969      269.18083      3393.4364      2683.2073    
    388000  -1811.2536      8.5294473     -1802.7241      269.33337      3395.3595      2683.2073    
    389000  -1811.7265      9.7564911     -1801.97        308.07959      3883.8149      2683.2073    
    390000  -1813.0745      9.0549568     -1804.0195      285.92733      3604.5517      2683.2073    
    391000  -1812.3519      9.3310388     -1803.0209      294.64513      3714.453       2683.2073    
    392000  -1811.8626      8.7560944     -1803.1065      276.49018      3485.582       2683.2073    
    393000  -1811.9688      8.378972      -1803.5899      264.58183      3335.459       2683.2073    
    394000  -1812.7478      8.7162298     -1804.0315      275.23138      3469.7129      2683.2073    
    395000  -1811.7081      8.5650998     -1803.143       270.45917      3409.5518      2683.2073    
    396000  -1812.5399      9.0243249     -1803.5156      284.96006      3592.3578      2683.2073    
    397000  -1812.5472      8.9698103     -1803.5774      283.23866      3570.657       2683.2073    
    398000  -1812.7918      8.2663592     -1804.5254      261.02587      3290.6307      2683.2073    
    399000  -1812.6949      8.2357529     -1804.4592      260.05942      3278.4471      2683.2073    
    400000  -1812.1196      9.2258132     -1802.8938      291.32244      3672.5653      2683.2073    
    401000  -1811.1982      8.6343835     -1802.5638      272.64693      3437.1319      2683.2073    
    402000  -1812.4834      8.8839069     -1803.5995      280.5261       3536.461       2683.2073    
    403000  -1813.0103      9.001001      -1804.0093      284.22357      3583.0732      2683.2073    
    404000  -1812.7151      8.7601734     -1803.9549      276.61898      3487.2057      2683.2073    
    405000  -1812.6867      9.1549482     -1803.5317      289.08474      3644.3557      2683.2073    
    406000  -1813.0112      9.2847859     -1803.7264      293.18461      3696.0408      2683.2073    
    407000  -1812.752       8.6034827     -1804.1485      271.67118      3424.8311      2683.2073    
    408000  -1813.2678      8.5073767     -1804.7605      268.63645      3386.5737      2683.2073    
    409000  -1812.2208      9.6406997     -1802.5801      304.42326      3837.7212      2683.2073    
    410000  -1811.0355      8.6230715     -1802.4124      272.28973      3432.6289      2683.2073    
    411000  -1812.9321      9.4140415     -1803.518       297.2661       3747.4943      2683.2073    
    412000  -1811.8116      8.5481915     -1803.2634      269.92525      3402.821       2683.2073    
    413000  -1812.8678      8.6483877     -1804.2194      273.08914      3442.7067      2683.2073    
    414000  -1812.4663      9.1955279     -1803.2708      290.36612      3660.5095      2683.2073    
    415000  -1812.1681      9.2368866     -1802.9312      291.6721       3676.9733      2683.2073    
    416000  -1813.3082      8.4682065     -1804.84        267.39958      3370.981       2683.2073    
    417000  -1812.9044      9.0148364     -1803.8896      284.66045      3588.5807      2683.2073    
    418000  -1812.6887      8.4088649     -1804.2798      265.52576      3347.3586      2683.2073    
    419000  -1812.6598      8.2457468     -1804.414       260.37499      3282.4254      2683.2073    
    420000  -1812.6597      8.4173565     -1804.2424      265.79389      3350.7389      2683.2073    
    421000  -1812.9491      8.7782804     -1804.1708      277.19074      3494.4137      2683.2073    
    422000  -1812.6414      8.5998077     -1804.0416      271.55513      3423.3682      2683.2073    
    423000  -1812.9998      8.7360728     -1804.2637      275.85796      3477.6119      2683.2073    
    424000  -1812.1047      8.8870274     -1803.2176      280.62464      3537.7031      2683.2073    
    425000  -1813.8985      8.6753146     -1805.2232      273.93941      3453.4256      2683.2073    
    426000  -1811.2166      7.8177631     -1803.3988      246.8606       3112.0558      2683.2073    
    427000  -1811.9711      8.2140791     -1803.757       259.37503      3269.8193      2683.2073    
    428000  -1811.2681      8.0111638     -1803.2569      252.96759      3189.0438      2683.2073    
    429000  -1811.4608      8.023404      -1803.4374      253.3541       3193.9163      2683.2073    
    430000  -1812.3936      8.9981666     -1803.3954      284.13407      3581.9449      2683.2073    
    431000  -1812.3337      8.5021538     -1803.8315      268.47153      3384.4946      2683.2073    
    432000  -1812.0502      8.4783224     -1803.5718      267.71901      3375.0079      2683.2073    
    433000  -1811.3374      8.7548656     -1802.5826      276.45138      3485.0929      2683.2073    
    434000  -1812.0156      9.5562118     -1802.4594      301.7554       3804.0887      2683.2073    
    435000  -1811.7382      8.1492289     -1803.589       257.32726      3244.004       2683.2073    
    436000  -1812.8092      8.0048413     -1804.8044      252.76795      3186.527       2683.2073    
    437000  -1811.5881      9.019378      -1802.5687      284.80386      3590.3886      2683.2073    
    438000  -1812.5383      9.9741316     -1802.5642      314.952        3970.4521      2683.2073    
    439000  -1812.1421      8.6610226     -1803.4811      273.48811      3447.7363      2683.2073    
    440000  -1811.7521      9.4431578     -1802.309       298.1855       3759.0847      2683.2073    
    441000  -1812.317       9.2884329     -1803.0286      293.29977      3697.4926      2683.2073    
    442000  -1811.5894      9.163699      -1802.4257      289.36106      3647.8392      2683.2073    
    443000  -1812.1424      8.6156732     -1803.5267      272.05612      3429.6838      2683.2073    
    444000  -1813.1072      8.8257305     -1804.2814      278.68907      3513.3024      2683.2073    
    445000  -1811.625       8.6521253     -1802.9729      273.20716      3444.1945      2683.2073    
    446000  -1812.2317      8.8978064     -1803.3339      280.965        3541.994       2683.2073    
    447000  -1811.9206      8.5901012     -1803.3305      271.24863      3419.5043      2683.2073    
    448000  -1811.8951      9.2867689     -1802.6083      293.24723      3696.8303      2683.2073    
    449000  -1812.3236      9.4407706     -1802.8829      298.11012      3758.1345      2683.2073    
    450000  -1812.8941      9.7532804     -1803.1409      307.97821      3882.5368      2683.2073    
    451000  -1812.3345      9.2939586     -1803.0405      293.47426      3699.6923      2683.2073    
    452000  -1813.1633      8.2122878     -1804.951       259.31846      3269.1062      2683.2073    
    453000  -1812.7885      9.1182289     -1803.6703      287.92526      3629.7387      2683.2073    
    454000  -1812.0024      9.0523144     -1802.9501      285.84389      3603.4998      2683.2073    
    455000  -1812.7576      9.3134936     -1803.4441      294.09111      3707.4687      2683.2073    
    456000  -1812.5995      9.2749575     -1803.3246      292.87426      3692.1284      2683.2073    
    457000  -1812.3038      9.3533504     -1802.9504      295.34966      3723.3347      2683.2073    
    458000  -1811.9032      9.0078432     -1802.8954      284.43962      3585.7969      2683.2073    
    459000  -1813.0095      8.6471455     -1804.3623      273.04991      3442.2122      2683.2073    
    460000  -1813.2375      8.6774963     -1804.56        274.0083       3454.2941      2683.2073    
    461000  -1813.0608      8.6450325     -1804.4158      272.98319      3441.371       2683.2073    
    462000  -1812.1079      8.9574995     -1803.1504      282.84992      3565.7563      2683.2073    
    463000  -1812.1346      8.7066688     -1803.4279      274.92948      3465.9069      2683.2073    
    464000  -1810.9964      8.5062256     -1802.4902      268.6001       3386.1155      2683.2073    
    465000  -1811.8612      9.1452636     -1802.7159      288.77893      3640.5005      2683.2073    
    466000  -1812.4454      8.2997271     -1804.1456      262.07952      3303.9136      2683.2073    
    467000  -1812.676       8.8045831     -1803.8714      278.0213       3504.8841      2683.2073    
    468000  -1811.852       9.1484524     -1802.7035      288.87962      3641.7699      2683.2073    
    469000  -1812.0628      9.3074213     -1802.7554      293.89937      3705.0514      2683.2073    
    470000  -1811.955       9.0618719     -1802.8931      286.14568      3607.3044      2683.2073    
    471000  -1812.9164      8.3630475     -1804.5534      264.07898      3329.1199      2683.2073    
    472000  -1811.7524      8.1564823     -1803.596       257.5563       3246.8914      2683.2073    
    473000  -1811.8948      9.300552      -1802.5943      293.68246      3702.317       2683.2073    
    474000  -1813.084       9.2018941     -1803.8821      290.56714      3663.0437      2683.2073    
    475000  -1812.2649      9.3307467     -1802.9342      294.63591      3714.3367      2683.2073    
    476000  -1811.3122      8.5242604     -1802.7879      269.16959      3393.2947      2683.2073    
    477000  -1812.2665      9.0633549     -1803.2032      286.19251      3607.8947      2683.2073    
    478000  -1811.7626      9.1547366     -1802.6079      289.07806      3644.2715      2683.2073    
    479000  -1810.9355      9.3359498     -1801.5995      294.80021      3716.4079      2683.2073    
    480000  -1813.0722      8.4438949     -1804.6283      266.63189      3361.3032      2683.2073    
    481000  -1812.0497      9.041732      -1803.008       285.50972      3599.2872      2683.2073    
    482000  -1811.8077      8.9725948     -1802.8351      283.32659      3571.7654      2683.2073    
    483000  -1811.3167      7.98374       -1803.3329      252.10164      3178.1271      2683.2073    
    484000  -1812.3005      8.2463938     -1804.0541      260.39542      3282.683       2683.2073    
    485000  -1812.1229      9.0941464     -1803.0288      287.16481      3620.1521      2683.2073    
    486000  -1812.7683      9.0344286     -1803.7339      285.27911      3596.3799      2683.2073    
    487000  -1811.2468      8.925108      -1802.3217      281.8271       3552.8621      2683.2073    
    488000  -1812.3357      9.0218962     -1803.3138      284.88337      3591.3911      2683.2073    
    489000  -1812.0724      9.1002464     -1802.9722      287.35743      3622.5803      2683.2073    
    490000  -1811.3427      9.2047815     -1802.1379      290.65832      3664.1931      2683.2073    
    491000  -1811.234       8.1447461     -1803.0893      257.1857       3242.2195      2683.2073    
    492000  -1810.8837      8.8845422     -1801.9991      280.54616      3536.7139      2683.2073    
    493000  -1812.0474      8.0097166     -1804.0377      252.92189      3188.4677      2683.2073    
    494000  -1811.6632      8.3833645     -1803.2798      264.72053      3337.2076      2683.2073    
    495000  -1811.9938      8.1377153     -1803.8561      256.9637       3239.4208      2683.2073    
    496000  -1812.6681      8.1266422     -1804.5415      256.61404      3235.0129      2683.2073    
    497000  -1811.2764      8.3678131     -1802.9086      264.22947      3331.0169      2683.2073    
    498000  -1811.7131      8.794431      -1802.9187      277.70073      3500.8429      2683.2073    
    499000  -1811.4329      9.0988736     -1802.334       287.31408      3622.0338      2683.2073    
    500000  -1812.0128      9.263712      -1802.7491      292.51916      3687.6519      2683.2073    
    501000  -1812.559       8.7773623     -1803.7816      277.16176      3494.0482      2683.2073    
    502000  -1812.5705      8.4268817     -1804.1436      266.09467      3354.5307      2683.2073    
    503000  -1812.4385      9.7236957     -1802.7148      307.04401      3870.7599      2683.2073    
    504000  -1811.5598      8.8108953     -1802.7489      278.22062      3507.3969      2683.2073    
    505000  -1812.3017      8.2733556     -1804.0283      261.24679      3293.4158      2683.2073    
    506000  -1813.1769      8.5621317     -1804.6148      270.36544      3408.3703      2683.2073    
    507000  -1813.4361      8.4853392     -1804.9508      267.94058      3377.8012      2683.2073    
    508000  -1812.5092      8.4153469     -1804.0938      265.73044      3349.9389      2683.2073    
    509000  -1812.0045      8.7205989     -1803.2839      275.36934      3471.4521      2683.2073    
    510000  -1812.3335      9.5036326     -1802.8298      300.09511      3783.1582      2683.2073    
    511000  -1812.737       9.1033586     -1803.6337      287.4557       3623.8192      2683.2073    
    512000  -1812.4616      8.4824683     -1803.9791      267.84992      3376.6583      2683.2073    
    513000  -1811.9147      9.5211392     -1802.3935      300.64791      3790.1272      2683.2073    
    514000  -1812.3583      8.0291065     -1804.3292      253.53417      3196.1863      2683.2073    
    515000  -1813.2219      8.6823189     -1804.5396      274.16058      3456.2138      2683.2073    
    516000  -1812.0195      8.9257408     -1803.0937      281.84709      3553.114       2683.2073    
    517000  -1811.8779      9.0652419     -1802.8127      286.25209      3608.6459      2683.2073    
    518000  -1812.2979      8.3836283     -1803.9143      264.72886      3337.3126      2683.2073    
    519000  -1812.4688      9.3059544     -1803.1628      293.85305      3704.4675      2683.2073    
    520000  -1812.282       8.61          -1803.672       271.87697      3427.4255      2683.2073    
    521000  -1812.0748      9.4189263     -1802.6559      297.42035      3749.4388      2683.2073    
    522000  -1812.1118      9.5661366     -1802.5456      302.06879      3808.0395      2683.2073    
    523000  -1812.9019      8.6809439     -1804.2209      274.11716      3455.6665      2683.2073    
    524000  -1811.8986      8.4817171     -1803.4169      267.8262       3376.3593      2683.2073    
    525000  -1811.0298      8.8476454     -1802.1822      279.38107      3522.0262      2683.2073    
    526000  -1812.6246      9.2163771     -1803.4082      291.02447      3668.809       2683.2073    
    527000  -1812.0958      8.3555255     -1803.7403      263.84146      3326.1256      2683.2073    
    528000  -1812.4368      9.1398716     -1803.297       288.60867      3638.3541      2683.2073    
    529000  -1812.6081      8.7415587     -1803.8665      276.03119      3479.7957      2683.2073    
    530000  -1812.2985      9.1649392     -1803.1335      289.40022      3648.3329      2683.2073    
    531000  -1811.9126      8.5929416     -1803.3197      271.33832      3420.635       2683.2073    
    532000  -1812.1613      9.1003342     -1803.0609      287.3602       3622.6152      2683.2073    
    533000  -1811.1819      8.6454523     -1802.5365      272.99645      3441.5382      2683.2073    
    534000  -1812.3657      9.6100146     -1802.7557      303.45432      3825.5062      2683.2073    
    535000  -1812.2437      8.8198437     -1803.4239      278.50319      3510.959       2683.2073    
    536000  -1813.0629      8.6158        -1804.4471      272.06012      3429.7343      2683.2073    
    537000  -1812.2293      8.0158321     -1804.2135      253.115        3190.9021      2683.2073    
    538000  -1811.3118      8.3967662     -1802.915       265.14371      3342.5424      2683.2073    
    539000  -1811.4324      8.9263552     -1802.506       281.86649      3553.3586      2683.2073    
    540000  -1811.236       9.1184768     -1802.1175      287.93309      3629.8374      2683.2073    
    541000  -1811.4954      8.4500706     -1803.0453      266.8269       3363.7616      2683.2073    
    542000  -1812.383       8.3033161     -1804.0797      262.19285      3305.3423      2683.2073    
    543000  -1811.6323      8.7343961     -1802.8979      275.80501      3476.9444      2683.2073    
    544000  -1811.5902      8.9719408     -1802.6183      283.30594      3571.5051      2683.2073    
    545000  -1811.7409      8.5738291     -1803.167       270.73481      3413.0268      2683.2073    
    546000  -1812.0499      9.339081      -1802.7108      294.89908      3717.6544      2683.2073    
    547000  -1811.6812      8.9198749     -1802.7613      281.66186      3550.7789      2683.2073    
    548000  -1812.3297      8.5436166     -1803.7861      269.78079      3400.9999      2683.2073    
    549000  -1812.7062      8.3155703     -1804.3906      262.5798       3310.2204      2683.2073    
    550000  -1812.0769      8.8417812     -1803.2351      279.1959       3519.6918      2683.2073    
    551000  -1812.119       8.8986681     -1803.2203      280.99221      3542.337       2683.2073    
    552000  -1811.9941      9.3801502     -1802.6139      296.19592      3734.003       2683.2073    
    553000  -1812.9619      9.4509068     -1803.511       298.43019      3762.1694      2683.2073    
    554000  -1812.6885      8.7541212     -1803.9344      276.42787      3484.7965      2683.2073    
    555000  -1811.5973      9.3455096     -1802.2517      295.10208      3720.2135      2683.2073    
    556000  -1811.9328      8.8490952     -1803.0837      279.42686      3522.6033      2683.2073    
    557000  -1812.4314      8.6513425     -1803.78        273.18244      3443.8829      2683.2073    
    558000  -1812.015       8.7771307     -1803.2379      277.15444      3493.956       2683.2073    
    559000  -1812.8658      9.0715362     -1803.7942      286.45085      3611.1515      2683.2073    
    560000  -1812.2802      8.8976605     -1803.3826      280.9604       3541.9359      2683.2073    
    561000  -1811.459       9.2072019     -1802.2518      290.73475      3665.1566      2683.2073    
    562000  -1812.9345      9.0487211     -1803.8858      285.73042      3602.0694      2683.2073    
    563000  -1812.5649      9.5252884     -1803.0396      300.77893      3791.7789      2683.2073    
    564000  -1812.2359      8.7496461     -1803.4863      276.28656      3483.0151      2683.2073    
    565000  -1812.4307      9.8546017     -1802.5761      311.17762      3922.8703      2683.2073    
    566000  -1812.816       7.7482239     -1805.0678      244.66477      3084.374       2683.2073    
    567000  -1811.4038      8.0940248     -1803.3097      255.58409      3222.0287      2683.2073    
    568000  -1810.8686      8.6533706     -1802.2152      273.24648      3444.6902      2683.2073    
    569000  -1811.9152      9.1665361     -1802.7486      289.45065      3648.9686      2683.2073    
    570000  -1812.0792      7.7964587     -1804.2827      246.18787      3103.575       2683.2073    
    571000  -1811.362       9.4193345     -1801.9427      297.43324      3749.6013      2683.2073    
    572000  -1811.4448      9.0337328     -1802.4111      285.25714      3596.1029      2683.2073    
    573000  -1812.0509      8.9982748     -1803.0526      284.13748      3581.988       2683.2073    
    574000  -1811.6122      9.1274706     -1802.4847      288.21708      3633.4176      2683.2073    
    575000  -1811.5484      8.4385194     -1803.1099      266.46215      3359.1633      2683.2073    
    576000  -1811.8125      9.2255436     -1802.5869      291.31392      3672.458       2683.2073    
    577000  -1811.8995      9.0372767     -1802.8622      285.36904      3597.5137      2683.2073    
    578000  -1812.2407      10.449213     -1801.7915      329.95358      4159.57        2683.2073    
    579000  -1812.4614      8.5834465     -1803.8779      271.0385       3416.8552      2683.2073    
    580000  -1812.1944      8.8532965     -1803.3411      279.55952      3524.2757      2683.2073    
    581000  -1811.8979      9.1941919     -1802.7037      290.32393      3659.9776      2683.2073    
    582000  -1811.8985      8.681185      -1803.2173      274.12478      3455.7625      2683.2073    
    583000  -1811.7074      8.4174743     -1803.2899      265.79761      3350.7858      2683.2073    
    584000  -1811.5924      8.8253111     -1802.7671      278.67583      3513.1354      2683.2073    
    585000  -1812.2496      9.3744049     -1802.8752      296.0145       3731.716       2683.2073    
    586000  -1811.5387      8.5460983     -1802.9926      269.85916      3401.9878      2683.2073    
    587000  -1812.2089      8.7450087     -1803.4639      276.14013      3481.1691      2683.2073    
    588000  -1812.7378      8.5271093     -1804.2107      269.25954      3394.4288      2683.2073    
    589000  -1812.2083      9.507879      -1802.7004      300.2292       3784.8487      2683.2073    
    590000  -1812.3841      7.7751544     -1804.609       245.51515      3095.0944      2683.2073    
    591000  -1811.2569      9.6230987     -1801.6338      303.86747      3830.7147      2683.2073    
    592000  -1811.7556      8.6027131     -1803.1529      271.64688      3424.5247      2683.2073    
    593000  -1812.1108      9.9145018     -1802.1963      313.06908      3946.715       2683.2073    
    594000  -1812.4867      9.3908478     -1803.0959      296.53372      3738.2615      2683.2073    
    595000  -1812.8726      8.6542916     -1804.2183      273.27556      3445.0568      2683.2073    
    596000  -1812.6745      8.4833858     -1804.1911      267.87889      3377.0236      2683.2073    
    597000  -1812.8779      8.8457817     -1804.0321      279.32222      3521.2843      2683.2073    
    598000  -1812.8109      8.5929797     -1804.2179      271.33953      3420.6501      2683.2073    
    599000  -1812.517       9.046573      -1803.4704      285.66259      3601.2143      2683.2073    
    600000  -1811.5141      8.9434939     -1802.5706      282.40767      3560.1811      2683.2073    
    601000  -1812.2025      8.9729226     -1803.2295      283.33694      3571.8959      2683.2073    
    602000  -1812.5808      8.3952433     -1804.1855      265.09563      3341.9362      2683.2073    
    603000  -1812.2505      9.2369578     -1803.0136      291.67435      3677.0017      2683.2073    
    604000  -1811.8525      9.0154243     -1802.8371      284.67901      3588.8148      2683.2073    
    605000  -1811.8737      8.7333496     -1803.1403      275.77197      3476.5279      2683.2073    
    606000  -1811.5459      9.2904911     -1802.2554      293.36476      3698.312       2683.2073    
    607000  -1811.8663      9.0178283     -1802.8485      284.75492      3589.7717      2683.2073    
    608000  -1810.702       8.6638908     -1802.0381      273.57868      3448.8781      2683.2073    
    609000  -1811.8108      8.6822735     -1803.1286      274.15915      3456.1957      2683.2073    
    610000  -1812.1025      9.1844207     -1802.9181      290.01539      3656.088       2683.2073    
    611000  -1812.1358      9.214715      -1802.9211      290.97199      3668.1474      2683.2073    
    612000  -1812.3987      8.3495706     -1804.0492      263.65342      3323.7551      2683.2073    
    613000  -1810.8278      9.0120427     -1801.8158      284.57223      3587.4686      2683.2073    
    614000  -1811.8897      8.4377811     -1803.4519      266.43884      3358.8695      2683.2073    
    615000  -1812.0178      9.3017035     -1802.7161      293.71882      3702.7753      2683.2073    
    616000  -1813.0423      8.2645612     -1804.7778      260.96909      3289.9149      2683.2073    
    617000  -1812.1899      8.5211194     -1803.6688      269.0704       3392.0444      2683.2073    
    618000  -1812.2403      8.1993581     -1804.041       258.91018      3263.9592      2683.2073    
    619000  -1811.806       8.1788616     -1803.6271      258.26297      3255.8001      2683.2073    
    620000  -1812.2263      7.8979593     -1804.3284      249.39295      3143.9799      2683.2073    
    621000  -1812.0476      8.0323514     -1804.0152      253.63663      3197.478       2683.2073    
    622000  -1811.946       9.0652081     -1802.8808      286.25103      3608.6324      2683.2073    
    623000  -1811.8487      10.938741     -1800.9099      345.41136      4354.4389      2683.2073    
    624000  -1811.98        8.5500028     -1803.43        269.98245      3403.5421      2683.2073    
    625000  -1812.08        8.728734      -1803.3512      275.62623      3474.6905      2683.2073    
    626000  -1811.8304      8.507566      -1803.3228      268.64243      3386.6491      2683.2073    
    627000  -1812.9472      9.497633      -1803.4496      299.90566      3780.7699      2683.2073    
    628000  -1812.2719      8.3728974     -1803.899       264.39001      3333.0409      2683.2073    
    629000  -1812.2123      9.171657      -1803.0407      289.61235      3651.0071      2683.2073    
    630000  -1812.4325      8.3034126     -1804.1291      262.1959       3305.3807      2683.2073    
    631000  -1810.4612      8.5286391     -1801.9326      269.30785      3395.0377      2683.2073    
    632000  -1811.8311      9.0474414     -1802.7837      285.69001      3601.5599      2683.2073    
    633000  -1811.8956      8.6474678     -1803.2481      273.06009      3442.3405      2683.2073    
    634000  -1813.3193      9.9439292     -1803.3754      313.9983       3958.4293      2683.2073    
    635000  -1812.949       8.4808359     -1804.4682      267.79838      3376.0085      2683.2073    
    636000  -1812.512       8.7080657     -1803.8039      274.97359      3466.463       2683.2073    
    637000  -1812.7231      8.4271458     -1804.296       266.10301      3354.6358      2683.2073    
    638000  -1812.0699      8.6624149     -1803.4075      273.53207      3448.2905      2683.2073    
    639000  -1811.4828      8.6708218     -1802.812       273.79754      3451.6371      2683.2073    
    640000  -1812.6389      10.246858     -1802.392       323.56386      4079.0178      2683.2073    
    641000  -1812.5946      7.7630952     -1804.8315      245.13436      3090.2939      2683.2073    
    642000  -1812.8034      7.3401355     -1805.4632      231.77861      2921.9242      2683.2073    
    643000  -1812.3898      9.4592609     -1802.9305      298.69399      3765.495       2683.2073    
    644000  -1812.9783      9.6156695     -1803.3626      303.63289      3827.7574      2683.2073    
    645000  -1813.4396      9.0024188     -1804.4371      284.26834      3583.6376      2683.2073    
    646000  -1812.4295      8.6136565     -1803.8159      271.99243      3428.881       2683.2073    
    647000  -1810.966       8.2945615     -1802.6715      261.91641      3301.8573      2683.2073    
    648000  -1812.3069      9.430114      -1802.8768      297.77362      3753.8924      2683.2073    
    649000  -1812.1501      8.6397002     -1803.5104      272.81481      3439.2484      2683.2073    
    650000  -1812.7917      8.7950016     -1803.9967      277.71875      3501.07        2683.2073    
    651000  -1812.6527      8.5568058     -1804.0959      270.19727      3406.2502      2683.2073    
    652000  -1812.9316      8.4707451     -1804.4609      267.47974      3371.9916      2683.2073    
    653000  -1812.5188      8.4674573     -1804.0513      267.37592      3370.6828      2683.2073    
    654000  -1811.7043      8.3969352     -1803.3074      265.14905      3342.6097      2683.2073    
    655000  -1812.0208      8.2716546     -1803.7492      261.19308      3292.7386      2683.2073    
    656000  -1812.8263      8.9125226     -1803.9138      281.42969      3547.8521      2683.2073    
    657000  -1813.2686      8.7252495     -1804.5434      275.5162       3473.3034      2683.2073    
    658000  -1812.957       8.9009555     -1804.056       281.06444      3543.2476      2683.2073    
    659000  -1812.8423      7.9073904     -1804.9349      249.69075      3147.7342      2683.2073    
    660000  -1811.9416      8.3956801     -1803.5459      265.10942      3342.1101      2683.2073    
    661000  -1811.8015      9.4346597     -1802.3669      297.91716      3755.7019      2683.2073    
    662000  -1811.8326      8.3478466     -1803.4847      263.59899      3323.0688      2683.2073    
    663000  -1812.8398      8.8756798     -1803.9641      280.26631      3533.1859      2683.2073    
    664000  -1812.6113      9.2934937     -1803.3178      293.45958      3699.5072      2683.2073    
    665000  -1812.0401      8.3433707     -1803.6967      263.45765      3321.287       2683.2073    
    666000  -1812.2573      8.9541027     -1803.3032      282.74267      3564.4042      2683.2073    
    667000  -1811.8436      8.9139261     -1802.9296      281.47401      3548.4109      2683.2073    
    668000  -1811.8036      9.3244034     -1802.4792      294.43561      3711.8116      2683.2073    
    669000  -1812.2234      9.0743735     -1803.149       286.54044      3612.281       2683.2073    
    670000  -1812.5821      8.8992349     -1803.6829      281.01011      3542.5627      2683.2073    
    671000  -1812.9608      8.7324969     -1804.2283      275.74504      3476.1884      2683.2073    
    672000  -1812.6564      9.2177674     -1803.4386      291.06837      3669.3625      2683.2073    
    673000  -1813.3246      9.445363      -1803.8793      298.25514      3759.9626      2683.2073    
    674000  -1812.3213      8.5882396     -1803.733       271.18985      3418.7632      2683.2073    
    675000  -1812.5327      8.467097      -1804.0656      267.36454      3370.5394      2683.2073    
    676000  -1811.5667      10.094524     -1801.4721      318.75361      4018.3772      2683.2073    
    677000  -1813.2499      8.8554069     -1804.3945      279.62616      3525.1158      2683.2073    
    678000  -1812.7617      8.848799      -1803.9129      279.4175       3522.4854      2683.2073    
    679000  -1812.2197      8.8609451     -1803.3588      279.80104      3527.3205      2683.2073    
    680000  -1813.5563      9.4876602     -1804.0686      299.59075      3776.8         2683.2073    
    681000  -1813.3316      8.5905882     -1804.741       271.26401      3419.6981      2683.2073    
    682000  -1812.3004      8.8565319     -1803.4438      279.66168      3525.5636      2683.2073    
    683000  -1810.914       8.6158877     -1802.2981      272.06289      3429.7692      2683.2073    
    684000  -1812.6246      8.6659904     -1803.9586      273.64498      3449.7138      2683.2073    
    685000  -1812.6111      9.0370126     -1803.574       285.3607       3597.4085      2683.2073    
    686000  -1813.0206      8.2959205     -1804.7247      261.95932      3302.3983      2683.2073    
    687000  -1814.1368      8.9325264     -1805.2043      282.06135      3555.8152      2683.2073    
    688000  -1812.5178      8.9795611     -1803.5383      283.54656      3574.5385      2683.2073    
    689000  -1812.5305      9.3107373     -1803.2197      294.00407      3706.3714      2683.2073    
    690000  -1813.4426      8.8580249     -1804.5845      279.70883      3526.158       2683.2073    
    691000  -1813.7034      9.2376309     -1804.4658      291.6956       3677.2697      2683.2073    
    692000  -1812.1559      9.8000857     -1802.3559      309.45617      3901.1688      2683.2073    
    693000  -1813.5403      8.8101247     -1804.7302      278.19629      3507.0901      2683.2073    
    694000  -1812.1714      8.8229891     -1803.3484      278.60251      3512.2111      2683.2073    
    695000  -1812.633       8.7050172     -1803.928       274.87732      3465.2495      2683.2073    
    696000  -1811.6958      9.0387534     -1802.657       285.41567      3598.1015      2683.2073    
    697000  -1811.5281      8.8427113     -1802.6854      279.22527      3520.062       2683.2073    
    698000  -1812.158       8.442787      -1803.7152      266.59691      3360.8622      2683.2073    
    699000  -1812.353       8.8542876     -1803.4987      279.59082      3524.6703      2683.2073    
    700000  -1812.8142      8.6700825     -1804.1441      273.77419      3451.3428      2683.2073    
    701000  -1811.5299      8.611668      -1802.9183      271.92964      3428.0895      2683.2073    
    702000  -1812.5722      8.6462724     -1803.926       273.02235      3441.8646      2683.2073    
    703000  -1812.9773      8.5268693     -1804.4504      269.25197      3394.3333      2683.2073    
    704000  -1813.4116      9.004064      -1804.4076      284.32029      3584.2925      2683.2073    
    705000  -1813.173       9.7982507     -1803.3748      309.39823      3900.4383      2683.2073    
    706000  -1812.0054      8.7114668     -1803.2939      275.08098      3467.8169      2683.2073    
    707000  -1813.5424      8.6937866     -1804.8486      274.52269      3460.7788      2683.2073    
    708000  -1812.8858      8.5584697     -1804.3273      270.24981      3406.9125      2683.2073    
    709000  -1812.6961      9.6349531     -1803.0612      304.2418       3835.4337      2683.2073    
    710000  -1812.3762      9.0882928     -1803.2879      286.97997      3617.8219      2683.2073    
    711000  -1813.6052      8.6587779     -1804.9465      273.41723      3446.8428      2683.2073    
    712000  -1812.7119      8.9370451     -1803.7748      282.20404      3557.6139      2683.2073    
    713000  -1812.3461      8.6094995     -1803.7366      271.86117      3427.2262      2683.2073    
    714000  -1812.28        9.041721      -1803.2383      285.50938      3599.2828      2683.2073    
    715000  -1813.3625      9.5057074     -1803.8568      300.16062      3783.9842      2683.2073    
    716000  -1813.3778      8.7092383     -1804.6686      275.01061      3466.9298      2683.2073    
    717000  -1813.286       8.601832      -1804.6842      271.61905      3424.174       2683.2073    
    718000  -1813.1407      9.7738329     -1803.3669      308.62719      3890.7182      2683.2073    
    719000  -1812.2963      9.0873833     -1803.2089      286.95125      3617.4598      2683.2073    
    720000  -1812.6295      9.1566136     -1803.4729      289.13733      3645.0187      2683.2073    
    721000  -1813.5361      8.2959052     -1805.2402      261.95884      3302.3922      2683.2073    
    722000  -1813.9983      8.6053886     -1805.3929      271.73136      3425.5898      2683.2073    
    723000  -1812.5088      9.23304       -1803.2758      291.55063      3675.4421      2683.2073    
    724000  -1812.6089      9.1841677     -1803.4247      290.0074       3655.9873      2683.2073    
    725000  -1812.4279      8.471781      -1803.9561      267.51245      3372.404       2683.2073    
    726000  -1813.1185      8.6343661     -1804.4841      272.64638      3437.125       2683.2073    
    727000  -1812.5292      9.1630376     -1803.3662      289.34018      3647.5759      2683.2073    
    728000  -1813.8767      9.7724299     -1804.1043      308.58289      3890.1597      2683.2073    
    729000  -1812.5592      9.2449142     -1803.3143      291.92559      3680.1689      2683.2073    
[...]
   1662000  -1814.1389      8.5418189     -1805.5971      269.72403      3400.2843      2683.2073    
   1663000  -1813.4758      8.6420741     -1804.8337      272.88977      3440.1934      2683.2073    
   1664000  -1811.9694      9.2328678     -1802.7365      291.5452       3675.3736      2683.2073    
   1665000  -1811.4505      8.7842696     -1802.6663      277.37987      3496.7979      2683.2073    
   1666000  -1812.9447      9.028796      -1803.9159      285.10125      3594.1377      2683.2073    
   1667000  -1812.8876      9.2802356     -1803.6074      293.04093      3694.2295      2683.2073    
   1668000  -1812.3759      8.2883154     -1804.0876      261.71918      3299.3709      2683.2073    
   1669000  -1811.4801      8.4534591     -1803.0267      266.9339       3365.1105      2683.2073    
   1670000  -1812.1         9.0689443     -1803.031       286.36901      3610.1197      2683.2073    
   1671000  -1813.5356      8.3442762     -1805.1914      263.48624      3321.6475      2683.2073    
   1672000  -1812.4922      9.3394582     -1803.1528      294.91099      3717.8046      2683.2073    
   1673000  -1811.8413      9.8547621     -1801.9865      311.18268      3922.9341      2683.2073    
   1674000  -1811.7169      8.7346859     -1802.9822      275.81417      3477.0598      2683.2073    
   1675000  -1812.6836      8.80041       -1803.8831      277.88953      3503.2229      2683.2073    
   1676000  -1812.116       8.7568281     -1803.3591      276.51335      3485.8741      2683.2073    
   1677000  -1812.5941      8.5442017     -1804.0499      269.79927      3401.2328      2683.2073    
   1678000  -1812.0749      9.0064577     -1803.0684      284.39587      3585.2454      2683.2073    
   1679000  -1812.0156      8.6490197     -1803.3666      273.10909      3442.9582      2683.2073    
   1680000  -1810.5889      9.3005089     -1801.2883      293.68109      3702.2998      2683.2073    
   1681000  -1811.6265      8.4754851     -1803.151       267.62941      3373.8785      2683.2073    
   1682000  -1811.809       8.8047769     -1803.0042      278.02742      3504.9613      2683.2073    
   1683000  -1811.6884      8.7344378     -1802.9539      275.80633      3476.961       2683.2073    
   1684000  -1811.7392      9.1032934     -1802.6359      287.45364      3623.7932      2683.2073    
   1685000  -1812.9565      9.4474544     -1803.5091      298.32118      3760.7951      2683.2073    
   1686000  -1812.8657      9.5457771     -1803.3199      301.4259       3799.9349      2683.2073    
   1687000  -1812.623       8.2869314     -1804.3361      261.67547      3298.8199      2683.2073    
   1688000  -1812.3542      8.536929      -1803.8173      269.56962      3398.3377      2683.2073    
   1689000  -1811.57        9.0142214     -1802.5558      284.64103      3588.3359      2683.2073    
   1690000  -1812.1984      9.283359      -1802.915       293.13956      3695.4729      2683.2073    
   1691000  -1812.3343      9.8007288     -1802.5336      309.47648      3901.4248      2683.2073    
   1692000  -1811.8265      9.1370749     -1802.6894      288.52036      3637.2408      2683.2073    
   1693000  -1812.9776      8.390294      -1804.5873      264.93934      3339.966       2683.2073    
   1694000  -1812.3687      9.6499191     -1802.7188      304.71438      3841.3912      2683.2073    
   1695000  -1812.6011      9.8109567     -1802.7901      309.79944      3905.4963      2683.2073    
   1696000  -1812.367       8.5593077     -1803.8077      270.27627      3407.2461      2683.2073    
   1697000  -1813.3841      8.1443284     -1805.2398      257.17252      3242.0533      2683.2073    
   1698000  -1811.6894      9.0403156     -1802.6491      285.465        3598.7233      2683.2073    
   1699000  -1812.1503      8.9274347     -1803.2229      281.90057      3553.7883      2683.2073    
   1700000  -1813.7926      7.8011281     -1805.9915      246.33532      3105.4338      2683.2073    
   1701000  -1813.0932      9.2162547     -1803.8769      291.02061      3668.7603      2683.2073    
   1702000  -1811.9688      10.081669     -1801.8872      318.3477       4013.2601      2683.2073    
   1703000  -1811.9564      8.7289026     -1803.2275      275.63155      3474.7576      2683.2073    
   1704000  -1811.8378      8.8945594     -1802.9433      280.86247      3540.7014      2683.2073    
   1705000  -1812.5448      8.6488956     -1803.8959      273.10518      3442.9089      2683.2073    
   1706000  -1812.4036      8.2695239     -1804.134       261.1258       3291.8905      2683.2073    
   1707000  -1812.4944      9.5509835     -1802.9434      301.5903       3802.0075      2683.2073    
   1708000  -1813.1886      8.922325      -1804.2662      281.73922      3551.7542      2683.2073    
   1709000  -1812.3996      8.119406      -1804.2802      256.38555      3232.1323      2683.2073    
   1710000  -1812.4239      9.1326219     -1803.2913      288.37974      3635.4682      2683.2073    
   1711000  -1811.6969      8.8158863     -1802.881       278.37822      3509.3837      2683.2073    
   1712000  -1811.4809      8.7893956     -1802.6915      277.54173      3498.8384      2683.2073    
   1713000  -1812.4216      10.060449     -1802.3611      317.67764      4004.813       2683.2073    
   1714000  -1812.8504      8.5143071     -1804.3361      268.85529      3389.3325      2683.2073    
   1715000  -1811.4638      7.8902312     -1803.5735      249.14892      3140.9036      2683.2073    
   1716000  -1811.9235      9.3735196     -1802.55        295.98655      3731.3635      2683.2073    
   1717000  -1812.4278      8.3304953     -1804.0973      263.05109      3316.1617      2683.2073    
   1718000  -1811.7567      8.253848      -1803.5028      260.6308       3285.6503      2683.2073    
   1719000  -1811.9878      8.3549625     -1803.6328      263.82368      3325.9014      2683.2073    
   1720000  -1811.159       8.898678      -1802.2603      280.99253      3542.341       2683.2073    
   1721000  -1812.7745      8.69123       -1804.0833      274.44196      3459.7611      2683.2073    
   1722000  -1813.0574      8.705369      -1804.352       274.88843      3465.3895      2683.2073    
   1723000  -1812.2564      8.9834074     -1803.273       283.66802      3576.0696      2683.2073    
   1724000  -1812.2627      10.235407     -1802.0273      323.20227      4074.4594      2683.2073    
   1725000  -1812.8033      9.9674836     -1802.8358      314.74208      3967.8057      2683.2073    
   1726000  -1812.7354      8.3970558     -1804.3383      265.15286      3342.6577      2683.2073    
   1727000  -1812.2793      8.9463114     -1803.333       282.49664      3561.3026      2683.2073    
   1728000  -1813.2607      8.7529056     -1804.5078      276.38949      3484.3126      2683.2073    
   1729000  -1812.6682      8.688321      -1803.9799      274.35011      3458.6031      2683.2073    
   1730000  -1811.8962      8.5308987     -1803.3653      269.3792       3395.9372      2683.2073    
   1731000  -1812.3633      9.0517001     -1803.3116      285.82449      3603.2552      2683.2073    
   1732000  -1813.4881      8.7213307     -1804.7668      275.39245      3471.7435      2683.2073    
   1733000  -1812.4097      8.3883998     -1804.0213      264.87953      3339.212       2683.2073    
   1734000  -1813.0304      9.3350449     -1803.6953      294.77163      3716.0477      2683.2073    
   1735000  -1812.2437      9.1087301     -1803.1349      287.62532      3625.9575      2683.2073    
   1736000  -1811.6168      9.1935405     -1802.4233      290.30337      3659.7184      2683.2073    
   1737000  -1811.4469      8.4844449     -1802.9624      267.91234      3377.4452      2683.2073    
   1738000  -1812.8498      8.2237974     -1804.626       259.6819       3273.6879      2683.2073    
   1739000  -1813.2434      8.8327619     -1804.4106      278.9111       3516.1014      2683.2073    
   1740000  -1812.5559      8.6588697     -1803.897       273.42013      3446.8793      2683.2073    
   1741000  -1812.3227      9.6155086     -1802.7071      303.6278       3827.6933      2683.2073    
   1742000  -1812.3959      9.5418151     -1802.8541      301.30079      3798.3577      2683.2073    
   1743000  -1811.8636      8.1918164     -1803.6718      258.67204      3260.957       2683.2073    
   1744000  -1811.3312      8.8735314     -1802.4576      280.19847      3532.3307      2683.2073    
   1745000  -1812.259       9.8056179     -1802.4533      309.63086      3903.371       2683.2073    
   1746000  -1811.7239      8.8264654     -1802.8975      278.71228      3513.5949      2683.2073    
   1747000  -1813.2369      8.5701203     -1804.6668      270.6177       3411.5504      2683.2073    
   1748000  -1812.0297      9.1675713     -1802.8621      289.48334      3649.3807      2683.2073    
   1749000  -1811.1231      9.3367329     -1801.7863      294.82494      3716.7197      2683.2073    
   1750000  -1810.5338      9.3491391     -1801.1846      295.21668      3721.6583      2683.2073    
   1751000  -1811.1753      8.9176856     -1802.2576      281.59273      3549.9074      2683.2073    
   1752000  -1812.4872      9.0560675     -1803.4311      285.9624       3604.9938      2683.2073    
   1753000  -1812.6015      8.9857346     -1803.6158      283.7415       3576.996       2683.2073    
   1754000  -1811.0263      9.2212454     -1801.8051      291.1782       3670.747       2683.2073    
   1755000  -1812.1052      8.9200566     -1803.1852      281.6676       3550.8513      2683.2073    
   1756000  -1812.6127      8.6027408     -1804.01        271.64775      3424.5358      2683.2073    
   1757000  -1812.8463      8.8855803     -1803.9607      280.57894      3537.1271      2683.2073    
   1758000  -1813.6994      9.0965294     -1804.6029      287.24006      3621.1006      2683.2073    
   1759000  -1812.9121      8.6447437     -1804.2674      272.97407      3441.2561      2683.2073    
   1760000  -1812.9832      8.9880187     -1803.9952      283.81363      3577.9053      2683.2073    
   1761000  -1812.7809      8.1821873     -1804.5987      258.36798      3257.1239      2683.2073    
   1762000  -1812.1083      8.4140269     -1803.6943      265.68875      3349.4135      2683.2073    
   1763000  -1812.6938      8.5019552     -1804.1919      268.46526      3384.4156      2683.2073    
   1764000  -1813.2285      9.3882781     -1803.8402      296.45257      3737.2385      2683.2073    
   1765000  -1811.6226      8.6359118     -1802.9866      272.69519      3437.7403      2683.2073    
   1766000  -1812.3893      9.5012304     -1802.888       300.01926      3782.202       2683.2073    
   1767000  -1812.4897      9.4060912     -1803.0836      297.01506      3744.3295      2683.2073    
   1768000  -1812.9149      8.1132191     -1804.8017      256.19018      3229.6694      2683.2073    
   1769000  -1812.3746      7.8382528     -1804.5364      247.5076       3120.2123      2683.2073    
   1770000  -1811.9472      9.5939049     -1802.3533      302.94563      3819.0934      2683.2073    
   1771000  -1812.6439      8.6471738     -1803.9967      273.05081      3442.2235      2683.2073    
   1772000  -1813.6855      9.0303424     -1804.6552      285.15008      3594.7533      2683.2073    
   1773000  -1811.5961      8.6157438     -1802.9804      272.05835      3429.712       2683.2073    
   1774000  -1811.5519      9.0484895     -1802.5034      285.72311      3601.9772      2683.2073    
   1775000  -1811.5134      9.171093      -1802.3423      289.59454      3650.7825      2683.2073    
   1776000  -1812.4867      8.5321554     -1803.9545      269.41888      3396.4375      2683.2073    
   1777000  -1811.1946      8.5517624     -1802.6428      270.03801      3404.2426      2683.2073    
   1778000  -1812.15        9.4998027     -1802.6502      299.97417      3781.6337      2683.2073    
   1779000  -1813.0217      8.1679084     -1804.8538      257.9171       3251.4399      2683.2073    
   1780000  -1812.3797      9.5086758     -1802.8711      300.25436      3785.1658      2683.2073    
   1781000  -1811.4788      8.4710602     -1803.0077      267.48969      3372.117       2683.2073    
   1782000  -1812.0925      7.9532378     -1804.1392      251.13847      3165.9849      2683.2073    
   1783000  -1810.4156      8.8305299     -1801.5851      278.84062      3515.2129      2683.2073    
   1784000  -1811.493       9.9974385     -1801.4956      315.68796      3979.73        2683.2073    
   1785000  -1811.085       8.121964      -1802.963       256.46632      3233.1506      2683.2073    
   1786000  -1812.7154      9.5792935     -1803.1361      302.48424      3813.2769      2683.2073    
   1787000  -1812.3163      9.1211137     -1803.1952      288.01635      3630.8871      2683.2073    
   1788000  -1811.7233      8.6159448     -1803.1073      272.06469      3429.792       2683.2073    
   1789000  -1811.7807      8.8163001     -1802.9644      278.39129      3509.5484      2683.2073    
   1790000  -1812.1764      8.889791      -1803.2866      280.7119       3538.8033      2683.2073    
   1791000  -1810.9628      8.1151174     -1802.8477      256.25012      3230.4251      2683.2073    
   1792000  -1811.872       9.8206387     -1802.0514      310.10517      3909.3504      2683.2073    
   1793000  -1811.8554      8.5569807     -1803.2984      270.20279      3406.3198      2683.2073    
   1794000  -1812.1325      9.3668192     -1802.7657      295.77497      3728.6963      2683.2073    
   1795000  -1811.0421      8.9326165     -1802.1095      282.0642       3555.851       2683.2073    
   1796000  -1812.1187      8.0590405     -1804.0597      254.47939      3208.1023      2683.2073    
   1797000  -1812.0227      9.0617749     -1802.9609      286.14262      3607.2658      2683.2073    
   1798000  -1812.2607      9.4563014     -1802.8044      298.60054      3764.3169      2683.2073    
   1799000  -1812.4896      10.310681     -1802.1789      325.57919      4104.4242      2683.2073    
   1800000  -1811.8764      8.5533355     -1803.3231      270.08769      3404.8688      2683.2073    
   1801000  -1811.7971      9.4587616     -1802.3384      298.67822      3765.2962      2683.2073    
   1802000  -1812.8688      9.0596371     -1803.8092      286.07511      3606.4147      2683.2073    
   1803000  -1813.0876      8.8179815     -1804.2696      278.44438      3510.2177      2683.2073    
   1804000  -1812.727       9.4751089     -1803.2519      299.19442      3771.8037      2683.2073    
   1805000  -1813.1529      8.2395056     -1804.9134      260.17791      3279.9409      2683.2073    
   1806000  -1811.3247      8.9280339     -1802.3966      281.91949      3554.0268      2683.2073    
   1807000  -1811.5819      8.3550205     -1803.2268      263.82552      3325.9245      2683.2073    
   1808000  -1812.7177      9.1225015     -1803.5952      288.06017      3631.4395      2683.2073    
   1809000  -1813.1637      8.8611168     -1804.3026      279.80646      3527.3888      2683.2073    
   1810000  -1811.9875      9.3004373     -1802.687       293.67883      3702.2713      2683.2073    
   1811000  -1811.043       8.9154153     -1802.1276      281.52104      3549.0037      2683.2073    
   1812000  -1811.843       9.5388482     -1802.3042      301.20711      3797.1767      2683.2073    
   1813000  -1811.8845      8.3831128     -1803.5013      264.71258      3337.1074      2683.2073    
   1814000  -1811.2969      8.3474793     -1802.9494      263.58739      3322.9226      2683.2073    
   1815000  -1813.6125      8.7775045     -1804.835       277.16624      3494.1048      2683.2073    
   1816000  -1812.2338      8.82585       -1803.4079      278.69285      3513.35        2683.2073    
   1817000  -1812.5771      8.8089235     -1803.7682      278.15836      3506.6119      2683.2073    
   1818000  -1811.0814      9.9833623     -1801.098       315.24348      3974.1266      2683.2073    
   1819000  -1812.6154      9.4671593     -1803.1483      298.94339      3768.6391      2683.2073    
   1820000  -1812.6862      8.9160678     -1803.7701      281.54164      3549.2634      2683.2073    
   1821000  -1812.0185      8.9251606     -1803.0933      281.82877      3552.883       2683.2073    
   1822000  -1813.1044      7.7931353     -1805.3113      246.08293      3102.2521      2683.2073    
   1823000  -1813.1113      9.3787147     -1803.7326      296.15059      3733.4316      2683.2073    
   1824000  -1811.9582      9.1190532     -1802.8391      287.95129      3630.0668      2683.2073    
   1825000  -1811.5209      8.8550428     -1802.6659      279.61466      3524.9709      2683.2073    
   1826000  -1811.2743      9.010499      -1802.2638      284.52348      3586.8541      2683.2073    
   1827000  -1812.7909      9.2912182     -1803.4997      293.38772      3698.6014      2683.2073    
   1828000  -1811.8425      8.7927342     -1803.0497      277.64715      3500.1674      2683.2073    
   1829000  -1811.6925      8.4201247     -1803.2723      265.8813       3351.8409      2683.2073    
   1830000  -1812.4148      8.808456      -1803.6063      278.1436       3506.4259      2683.2073    
   1831000  -1811.496       7.820094      -1803.6759      246.9342       3112.9837      2683.2073    
   1832000  -1811.7113      7.7521609     -1803.9592      244.78909      3085.9412      2683.2073    
   1833000  -1812.8231      9.0314719     -1803.7916      285.18574      3595.2029      2683.2073    
   1834000  -1811.4567      9.596908      -1801.8598      303.04045      3820.2888      2683.2073    
   1835000  -1811.6553      9.5118468     -1802.1435      300.35449      3786.4281      2683.2073    
   1836000  -1811.7781      8.6596766     -1803.1184      273.44561      3447.2005      2683.2073    
   1837000  -1811.4934      7.9962957     -1803.4971      252.4981       3183.1252      2683.2073    
   1838000  -1812.2965      8.4041482     -1803.8924      265.37681      3345.481       2683.2073    
   1839000  -1811.893       8.6059949     -1803.287       271.7505       3425.8311      2683.2073    
   1840000  -1812.4138      9.2585965     -1803.1552      292.35763      3685.6155      2683.2073    
   1841000  -1811.3233      8.5692456     -1802.754       270.59008      3411.2022      2683.2073    
   1842000  -1813.0537      9.132206      -1803.9214      288.36661      3635.3026      2683.2073    
   1843000  -1812.5847      9.4655619     -1803.1191      298.89295      3768.0033      2683.2073    
   1844000  -1813.5578      8.9510071     -1804.6068      282.64492      3563.1719      2683.2073    
   1845000  -1812.3525      9.0868752     -1803.2656      286.93521      3617.2576      2683.2073    
   1846000  -1812.3439      8.7466082     -1803.5973      276.19063      3481.8058      2683.2073    
   1847000  -1813.7457      7.9614249     -1805.7843      251.39699      3169.244       2683.2073    
   1848000  -1812.0467      9.179338      -1802.8674      289.85489      3654.0647      2683.2073    
   1849000  -1812.4403      9.5680406     -1802.8722      302.12891      3808.7975      2683.2073    
   1850000  -1812.3581      8.3983292     -1803.9597      265.19307      3343.1647      2683.2073    
   1851000  -1812.2225      8.935854      -1803.2867      282.16643      3557.1398      2683.2073    
   1852000  -1813.3201      8.7653557     -1804.5547      276.78262      3489.2687      2683.2073    
   1853000  -1812.029       9.6270194     -1802.4019      303.99128      3832.2755      2683.2073    
   1854000  -1813.1182      10.19954      -1802.9186      322.0697       4060.1817      2683.2073    
   1855000  -1812.9922      8.8216187     -1804.1705      278.55923      3511.6656      2683.2073    
   1856000  -1812.4         8.1386775     -1804.2613      256.99408      3239.8038      2683.2073    
   1857000  -1812.0119      9.1899409     -1802.8219      290.1897       3658.2854      2683.2073    
