246
Lattice="10.140377178 0.0 0.0 0.0 8.78182424 0.0 0.0 0.0 30.131127158" Properties=species:S:1:pos:R:3:initial_charges:R:1:forces:R:3 NELECT0=1456.0 NELECT=1457.0 U_vs_SHE=2.2781005045603537 stress="0.011556572327684287 -0.0006130223018168759 0.0002713620922660264 -0.0006130223018168759 0.009546406932565822 0.00010398978354634098 0.0002713620922660264 0.00010398978354634098 0.00583049950843472" free_energy=-1807.89052359 energy=-1812.7223241045604 pbc="T T T"
Cu       7.01495000       1.04875000       9.67224000       0.01055500       0.31790200       0.66416600       0.28803800
Cu       9.40692000       1.09900000      10.02230000      -0.04766600       0.43746400       0.22586500      -0.61826900
Cu       1.85312000       1.10239000      10.03770000      -0.07279100       0.23821700       0.18065300      -0.57263700
Cu       4.71146000       1.05583000      10.04350000      -0.07716800      -1.22818900       0.39901100      -0.46668500
Cu       8.21255000       3.33776000       9.88346000      -0.02371000       0.41576700       0.11407300      -0.03724000
Cu       0.63961000       3.32290000       9.90300000      -0.06338500      -0.13201600      -0.04535800       0.42103400
Cu       3.22852000       3.28437000       9.92187000      -0.03683000      -0.10543900      -0.04735700       0.25482000
Cu       5.83975000       3.29489000      10.03600000      -0.08510600      -0.64266300       0.13132700      -0.33877900
Cu       9.41439000       5.56780000       9.95239000      -0.04183700       0.18759400      -0.28412100      -0.50889400
Cu       1.77969000       5.56352000       9.87424000      -0.04152700       0.56671100      -0.03916400       0.30900000
Cu       4.46069000       5.51264000      10.00790000      -0.06008300      -0.22529200       0.17911600      -0.23081500
Cu       6.97663000       5.57604000       9.75922000      -0.03150400      -0.04734900      -0.45384200       0.45737500
Cu       0.58819000       7.73557000       9.82403000      -0.00908200       0.17362300       0.02928400       0.40152100
Cu       3.27776000       7.88339000       9.81483000      -0.04055600      -0.32338000      -0.79440300       0.23347200
Cu       5.85084000       7.69137000       9.73198000      -0.05049900      -0.86246300      -0.17447600       0.27726100
Cu       8.23174000       7.73553000       9.81049000      -0.03793700       0.44702300      -0.33543300       0.29358700
Cu       5.73308000       1.79764000      12.00280000      -0.00343500      -0.07096000       0.45557500       0.30761100
Cu       8.21562000       2.00750000      11.94810000       0.02139900      -0.11604600      -0.73483300       0.07348900
Cu       0.56398000       1.79305000      11.92630000       0.01092000       0.33255600       0.44096000       0.56479500
Cu       3.12416000       1.80194000      12.00210000       0.02134500       0.33319600       0.09784900      -0.22103500
Cu       6.99017000       4.08641000      11.99730000       0.01079100      -0.30344600       0.06521800      -0.11195500
Cu       9.52784000       4.09004000      11.96670000       0.01364900      -0.09062600      -0.45342300      -0.08891000
Cu       1.89768000       4.05500000      11.95320000       0.02474500      -0.08339300      -0.15126400      -0.14041900
Cu       4.38969000       4.02784000      11.98170000       0.01058000       0.35026000      -0.03628500       0.00722500
Cu       8.19298000       6.19533000      12.00070000       0.01161800      -0.00983600       0.61961100      -0.27970500
Cu       0.48310000       6.21882000      11.91020000       0.01990800       0.89414100       0.54858800       0.34088400
Cu       3.10533000       6.22948000      12.03010000       0.00853900       0.18728600      -0.28250900      -0.64960200
Cu       5.76684000       6.27165000      11.93090000       0.01179700      -0.36314000      -0.12268800       0.05080200
Cu       9.42566000       8.48356000      12.01380000       0.01542500       0.28469300      -0.47768800      -0.28055700
Cu       1.95115000       8.34804000      11.94580000       0.01115800      -0.67310700       0.18145600      -0.05395400
Cu       4.40272000       8.32284000      11.94780000       0.02447300       0.42497400       0.38035000       0.08974900
Cu       6.96872000       8.50358000      11.79630000       0.03698400      -0.02438300      -0.20797100       0.56028600
Cu       5.70396000       0.36591000      14.03060000      -0.00040700       0.01937800      -0.15923300      -0.10682300
Cu       8.23906000       0.36591000      14.03060000       0.00247000      -0.19926600       0.10609000      -0.06435300
Cu       0.63377000       0.36591000      14.03060000       0.02336900       0.08240600      -0.02648700      -0.05530900
Cu       3.16887000       0.36591000      14.03060000      -0.02034100       0.01467100      -0.08817800       0.03576800
Cu       6.97151000       2.56137000      14.03060000      -0.00438100      -0.03460900       0.01516800       0.14868400
Cu       9.50660000       2.56137000      14.03060000      -0.00002100       0.04392400      -0.00825900      -0.01200200
Cu       1.90132000       2.56137000      14.03060000      -0.00366300      -0.11780600       0.01058300      -0.02557500
Cu       4.43642000       2.56137000      14.03060000      -0.00349300      -0.00441800      -0.03665500       0.06456500
Cu       8.23906000       4.75682000      14.03060000       0.00916400       0.04895900      -0.06207200       0.21064500
Cu       0.63377000       4.75682000      14.03060000      -0.00117100       0.08572400       0.03702700       0.00776200
Cu       3.16887000       4.75682000      14.03060000      -0.02646500      -0.04468700      -0.09109700       0.17349100
Cu       5.70396000       4.75682000      14.03060000       0.02774200      -0.06740800       0.05147900      -0.01856500
Cu       9.50660000       6.95228000      14.03060000      -0.02507200      -0.00090200       0.01643700       0.04127700
Cu       1.90132000       6.95228000      14.03060000       0.00201300      -0.20681900      -0.03274300       0.08843400
Cu       4.43642000       6.95228000      14.03060000       0.00060300       0.07061400      -0.05645700       0.06375100
Cu       6.97151000       6.95228000      14.03060000       0.02893200      -0.04444900       0.15770500      -0.09655400
Cu       6.97151000       1.09773000      16.10050000       0.00211600       0.03295100       0.01210600       0.12608800
Cu       9.50660000       1.09773000      16.10050000       0.00308900       0.04660400      -0.01534100       0.01315300
Cu       1.90132000       1.09773000      16.10050000      -0.00636200       0.04798200       0.06951200      -0.03598700
Cu       4.43642000       1.09773000      16.10050000      -0.00463500       0.16593500       0.01480400       0.03571900
Cu       8.23906000       3.29318000      16.10050000       0.02439100      -0.08718200      -0.10624700      -0.17167600
Cu       0.63377000       3.29318000      16.10050000      -0.02745300       0.17263900       0.00132400      -0.17326600
Cu       3.16887000       3.29318000      16.10050000      -0.00512400      -0.09955700       0.05979100       0.23843600
Cu       5.70396000       3.29318000      16.10050000       0.00311700      -0.18637100       0.01137400       0.00959000
Cu       9.50660000       5.48864000      16.10050000      -0.02297900       0.05931300      -0.03241500      -0.09278600
Cu       1.90132000       5.48864000      16.10050000       0.03117600      -0.00936600       0.05736600       0.36781300
Cu       4.43642000       5.48864000      16.10050000      -0.00194700      -0.01759000       0.13690500       0.14240000
Cu       6.97151000       5.48864000      16.10050000       0.00069800      -0.06697100       0.17589800      -0.05241500
Cu       0.63377000       7.68410000      16.10050000       0.02610500      -0.14514500      -0.04285400       0.10361900
Cu       3.16887000       7.68410000      16.10050000      -0.00137900       0.16265800      -0.00114700       0.10395800
Cu       5.70396000       7.68410000      16.10050000      -0.01036600       0.00072600      -0.04135000       0.11568000
Cu       8.23906000       7.68410000      16.10050000      -0.02634800       0.07236100       0.17478900      -0.17615100
Cu       5.85379000       1.93470000      18.23000000       0.01554900      -0.54420100      -0.49656200       0.00964200
Cu       8.31899000       1.81407000      18.19350000       0.02327100      -0.42618300       0.34303700      -0.09564400
Cu       0.65934000       1.85486000      18.16570000       0.00822800       0.50007600      -0.42230600      -0.21787800
Cu       3.28236000       1.78541000      18.15560000       0.01090100      -0.24047700       0.56743400       0.07393900
Cu       6.94330000       4.06056000      18.08830000       0.01438200       0.33025600       0.28461800       0.57795000
Cu       9.53274000       3.93182000      18.09470000       0.01878700      -0.68810200       0.75226700       0.47996200
Cu       1.75566000       4.11011000      18.27300000       0.01832700       0.98852300      -0.11134100      -0.31707200
Cu       4.34478000       4.15356000      18.18330000       0.02263500       0.07114100      -0.67406200       0.34224600
Cu       8.28711000       6.29270000      18.10650000       0.01097800      -0.63332400      -0.63748800       0.39757900
Cu       0.47559000       6.21499000      18.24880000       0.01880700       0.97718500       0.24176500      -0.11036000
Cu       3.13877000       6.30465000      18.26340000       0.02800000      -0.06907700      -0.24820300       0.02256200
Cu       5.69107000       6.20933000      18.26270000       0.01997100       0.17746500       0.28856100      -0.47195800
Cu       9.44883000       8.47812000      18.25490000       0.01926500       0.72480000      -0.22353800      -0.71627800
Cu       1.88922000       8.36740000      18.09810000       0.01358500      -0.14541300       0.30732800       0.43939800
Cu       4.54714000       8.45916000      18.21860000       0.01171500      -0.37533200      -0.17901900      -0.33637400
Cu       7.02274000       8.35406000      18.16980000       0.02059600      -0.34161300       0.46009500       0.04413900
Cu       5.76967000       0.31472000      20.19670000      -0.04052200       0.03075800       0.53882600       0.09921500
Cu       8.26793000       0.45900000      20.19950000       0.00269700      -0.34153400       0.12158200       0.37299100
Cu       0.65380000       0.42134000      20.19560000       0.00274100       0.00949300       0.03770200       0.09943000
Cu       3.08573000       0.38176000      20.12360000      -0.02815000       0.72478700      -0.08783200       0.24865500
Cu       7.15295000       2.78887000      20.22990000      -0.00375300      -0.23057500      -0.60106600      -0.04057500
Cu       9.71471000       2.64441000      20.19190000       0.00180600      -0.68392900       0.04432600       0.17265600
Cu       2.00452000       2.58072000      20.16790000      -0.04679400       0.25973600       0.12818900       0.10199800
Cu       4.63194000       2.62565000      20.31620000      -0.01957000      -0.46238200      -0.14188800      -0.47487600
Cu       8.30631000       4.87373000      20.21310000      -0.03801100       0.21425000      -0.11428100      -0.27633000
Cu       0.62901000       4.84824000      20.34140000      -0.04419500       0.07793900       0.07805500      -0.09316000
Cu       3.12649000       4.76970000      20.37750000      -0.03078800       0.30339300       0.19309900      -0.39787500
Cu       5.69904000       4.86688000      20.28350000      -0.02467500       0.17321500      -0.47201400      -0.11038900
Cu       9.50073000       7.12382000      20.27590000      -0.05140900       0.16230100      -0.62609300       0.09970500
Cu       1.87703000       7.02159000      20.38800000      -0.04239300       0.09831100      -0.26073800      -0.57393400
Cu       4.51672000       6.99769000      20.30000000      -0.03654000      -0.53563200      -0.02650500      -0.18148900
Cu       7.06912000       6.92518000      20.29220000      -0.02992700      -0.29881800       0.45034100      -0.25927500
O        0.23435000       2.70370000      26.62910000      -1.35972800       0.12049900      -0.92733000      -0.08608000
O        4.67729000       3.41807000      26.54350000      -1.35022700       0.52353300       0.18896900      -0.90654400
O        8.62924000       7.85827000      23.57010000      -1.25204100       1.67907400       0.52834700      -0.21479800
O        9.40165000       4.98934000      27.87530000      -1.34016800      -0.20939500      -0.54881000       0.30370200
O       10.04450000       3.92392000      24.00640000      -1.27548700       0.82596500       0.43148100       0.04844900
O        2.81352000       5.37414000      26.96680000      -1.35642000       1.34692900      -0.05780100      -0.03027300
O        9.63874000       7.57098000      26.95650000      -1.32300500      -0.96702200       1.78112800       0.68219900
O        1.28134000       0.51486000      27.89640000      -1.38959500      -1.53290500      -0.81472700      -0.07769800
O        5.55367000       0.95106000       0.11160000      -1.28126400      -0.16911100      -1.25813800       0.67290900
O        2.84044000       2.40814000      24.47540000      -1.28779100      -0.44106900      -1.88316200      -1.82559000
O        3.91072000       1.37499000      27.86140000      -1.35816600      -0.63571600       0.55853500      -0.26319000
O        3.32314000       0.29301000       1.68765000      -1.36459800      -0.50044800      -2.24495300      -1.84828700
O        3.91002000       3.68823000       6.77438000      -1.30351400      -0.85013200       1.64333800      -1.34129100
O       10.00385000       2.48703000       3.29336000      -1.24556100      -0.61513900       0.66584900       1.94607300
O        0.26824000       3.07597000       0.50287000      -1.27666700       0.57737800       0.07476800      -0.43001200
O        4.22436000       2.37111000       2.84709000      -1.36160400      -0.20748400       0.46887300       0.75170800
O        7.06616000       3.56221000       6.25557000      -1.31814400       0.30509400       0.39277200      -0.24976500
O        7.97661000       5.16747000       0.99377000      -1.33895800      -1.12969300      -1.49659800      -1.34028800
O        3.58969000       0.70065000       6.68572000      -1.31259900       1.30370500      -0.60151800       1.66916800
O        8.74387000       8.60107000       3.14763000      -1.31885200       2.05054000      -0.04714300       0.82715300
O        0.81976000       5.62440000       2.37130000      -1.31063400       0.36432800      -0.03911000      -2.83393400
O        1.27900000       3.69752000       6.89814000      -1.28642000       0.16112800       0.04603700       1.10085800
O        3.51203000       5.20382000      23.52350000      -1.24825500       0.48681300       0.29746400      -0.31675400
O        1.35927000       7.60966000       0.36656000      -1.32999800      -0.52176200      -0.66324600       0.08977700
O        7.16564000       7.43381000      29.07420000      -1.27935900      -1.34630600       0.78963900      -0.69390800
O        9.39723000       4.68907000       5.14870000      -1.30158000       1.48789800      -0.65554200       1.07479300
O        7.71767000       0.63718000      26.78750000      -1.27113500       1.73583000       1.51055700      -0.75487400
O        8.04216000       7.89278000       6.54497000      -1.33294400      -1.05817400      -0.27938400      -0.42867400
O        6.48573000       8.19973000       4.50977000      -1.34322800      -0.69436900      -0.38380300       0.83507300
O        2.54915000       3.51788000      28.89430000      -1.31791400       0.31907900      -1.42965500      -0.37639600
O        5.42673000       5.81122000       6.51625000      -1.35601200      -1.53348200       0.99836500       0.28333700
O        0.08718000       7.34730000       5.30094000      -1.31109400       1.35759600      -0.58681300      -0.01587700
O        4.18924000       6.66920000       3.64114000      -1.31065400       0.18818000       0.08653500      -0.37769600
O        3.30856000       4.62025000       1.84405000      -1.38649300      -0.25881000      -0.65128100       2.22590400
O        5.31081000       2.97807000      23.93310000      -1.28582900      -0.64843800      -0.51938200      -0.69293900
O        1.15127000       6.60792000      25.21250000      -1.30743100      -0.85689100       0.03409000      -0.60041800
O        9.22844000       0.79201000       0.47199000      -1.33959600      -0.42769000      -0.45251400      -0.82509300
O        4.98769000       7.76187000      23.30720000      -1.32655400      -0.41628600       0.71619700      -0.79049700
O        6.18869000       3.28733000       1.29799000      -1.37470700      -1.20279300       0.31676800       1.39262700
O        2.63849000       6.70349000       6.25819000      -1.31301100       0.63113300       1.25050300      -2.81275500
O        6.62986000       6.12475000      24.82780000      -1.31548700      -0.47285400      -0.11179000       0.04774200
O       10.01670000       1.33840000      22.85840000      -1.31486600      -0.70519900       0.17273100      -1.01120400
O        1.25551000       1.10730000       5.81526000      -1.30786100      -0.86901800       1.27795000      -0.05879800
O        5.10419000       0.67505000      25.56500000      -1.31680200       0.83541400      -0.71874400      -1.32674400
O        4.37608000       5.30907000      29.70500000      -1.31120700       1.92103600       0.33384100       0.75172600
O        7.39216000       1.38986000      23.16130000      -1.30115200      -1.90358900       2.31158800      -0.17361900
O        6.84575000       2.89812000      28.46990000      -1.31390000      -1.13763600       2.74586200      -0.23487300
O        5.44654000       1.84666000       5.25613000      -1.33725500      -0.22359200      -0.59160700       0.26142900
O        2.26640000       8.68036000      23.14640000      -1.26000100       0.18060600      -0.42384700      -0.39774200
O        5.12245000       7.13084000      27.15680000      -1.34884300       0.53383600       0.38387900       0.02749000
H        0.19229000       2.86382000      25.69340000       0.65950700      -0.03105700       0.12873600      -0.83363200
H        0.00612000       3.55845000      27.00120000       0.69576200      -0.41569300       0.83426300       0.76352600
H        4.04103000       4.15784000      26.57980000       0.68288800      -0.16074700       0.42444700       0.06830600
H        4.98888000       3.36586000      25.60180000       0.67616000      -0.03479400       0.13045200       0.95554300
H        0.17109000       3.48029000       1.36999000       0.68395600      -0.23083500       0.17875300       0.25331000
H        9.46827000       8.42043000      23.58650000       0.64577600      -1.46402200      -0.64676000       0.47415200
H        8.59277000       4.69016000      28.36510000       0.65566000       0.77134800       1.00089500      -0.78456000
H        9.45243000       5.95623000      27.64920000       0.67488900      -0.64129700      -0.70798700       0.47556700
H        0.51442000       4.70023000      24.02600000       0.65473000      -0.64581700      -0.41556000       0.13345900
H        9.74397000       3.83187000      23.09980000       0.60906400      -0.21930200       0.47276000      -0.20280900
H        0.87929000       1.23130000      27.40460000       0.68481500      -0.33710100       0.81132200      -0.13283500
H        2.41592000       4.76674000      27.57910000       0.68160600      -0.45678000      -0.71238000       1.08777900
H        4.15156000       3.18363000       7.52612000       0.61895400       0.77693900      -0.48847900       1.28650000
H        0.24224000       8.12597000      27.35440000       0.67722200      -0.16129500      -0.64358500      -0.14928500
H        4.57591000       1.17662000      28.53740000       0.67873800       0.31711900       0.18165800       0.21390500
H        2.17344000       0.79611000      28.00100000       0.70119200       1.81484900      -0.00602700       0.13644800
H        6.38146000       0.43184000       0.24637000       0.62412300      -0.81185600       0.38036400      -0.39542700
H        2.72609000       1.53516000      23.94960000       0.65039800      -0.03142100       1.39081000       0.84307700
H        2.82597000       2.08592000      25.37720000       0.66787800       0.12741500       0.04935700       0.67185300
H        7.84327000       8.61104000       3.44001000       0.68097200      -1.31986100      -0.19665000       0.30503700
H        4.22792000       2.13133000      27.25870000       0.68170800       0.26114600      -0.83290600       0.71812500
H        3.12995000       4.34057000      23.69170000       0.65279800      -0.47912100      -0.30411100       0.17118000
H        3.52541000       1.01157000       2.24764000       0.72358300       0.51064100       2.15470900       1.38265800
H        3.56491000       8.28940000       2.17827000       0.64416100       0.00584600      -0.44663200       0.34384500
H        2.11851000       5.64241000      26.38260000       0.68161600      -0.65017200       0.80031700      -0.96186500
H        4.35246000       4.61232000       6.76660000       0.66629900      -0.12276400      -1.08202800       0.14870900
H        9.33685000       1.81148000       3.50565000       0.61287400       0.10958800      -0.39018900      -0.75090700
H        9.73554000       3.18335000       3.96242000       0.61651300       0.60366400      -0.29110300      -1.15796900
H        8.86041000       8.24493000      26.96270000       0.64283900       1.05852400      -1.43212000      -0.40174600
H        9.89100000       3.59696000      30.01689000       0.63234700      -0.11667000       0.54011100       0.03076400
H        4.67539000       2.30321000       3.73057000       0.67216000      -0.56805800       0.47232700      -0.66404000
H        6.46224000       2.84246000       5.88180000       0.70153200      -0.14399100       0.12324800       0.14112300
H        6.82408000       3.72799000       7.16875000       0.57842400       0.05795000      -0.44031200       0.31043000
H        8.25343000       5.75482000       1.64705000       0.63694400       0.93663200       1.49623900       1.73524100
H        7.29442000       4.58806000       1.42765000       0.68421200       0.39917300       0.26723300      -0.59249500
H        3.44214000       0.87127000       7.64359000       0.57555900       0.10460300      -0.16393100      -0.64243100
H        2.77479000       0.95947000       6.24197000       0.70585600      -1.37273700       0.20129700      -0.74543700
H        3.78109000       3.25831000       2.68038000       0.69051400       0.72777100      -0.82364000       0.14818400
H        9.22497000       8.27762000       3.95910000       0.62695600      -0.31525500       0.17970100      -1.26080800
H        0.84994000       6.39344000       1.72034000       0.66095500       0.19706400      -0.70353700       0.39902000
H        0.66047000       6.02634000       3.18533000       0.64664900      -0.50365800       0.97898800       2.19249500
H        4.85612000       0.51718000       0.68771000       0.64809100       0.68302800       0.49969600      -0.66354300
H        2.30871000       3.72338000       6.85441000       0.67738000      -0.83117700       0.02976500       0.12480000
H        1.00738000       3.73897000       7.87106000       0.53226000       0.62847700       0.07652600      -1.44867000
H        3.03818000       5.58841000      22.77520000       0.57283100      -0.18025300      -0.12558000       0.09116300
H        2.00698000       8.29999000       0.57164000       0.67600300      -0.24213100       0.17234700       0.10729900
H        7.93804000       7.65920000      28.58530000       0.63403800       0.89439100       0.44567600      -0.55394200
H       10.07930000       4.32781000       5.80178000       0.62919000      -0.75737000       0.53430500      -0.97305300
H        7.48884000       6.89918000      29.76640000       0.64812700       0.40754900      -1.41439800       1.49750900
H        0.55091000       8.04631000       0.04340000       0.65854800       0.47341400       0.34330100       0.12974500
H        8.58608000       4.26157000       5.45301000       0.67644000      -0.62659700       0.03330100       0.20137000
H        8.39113000       1.25744000      26.36510000       0.61316500      -0.98934400      -0.83358400       0.92377600
H        6.93234000       0.79837000      26.24630000       0.67278900      -0.83262100      -0.25696700      -0.19084300
H        8.88945000       7.92694000       6.04674000       0.69699000       0.37991900       0.15403000       0.96230000
H        5.78507000       7.56127000       4.25100000       0.67720900       0.24975000       0.23118200      -0.15601800
H        2.96741000       2.65252000      28.53430000       0.64825600      -0.36760200       1.19276200       0.72899600
H        8.07596000       8.12619000       7.47252000       0.59662500       0.60903900       0.24310100       0.10234600
H        2.01821000       3.24190000      29.66070000       0.65651700      -0.24460100       0.09105800      -0.13435900
H        5.51830000       6.31917000       7.34753000       0.65084600       0.60277400      -0.57019100      -0.53795900
H        6.14181000       5.20859000       6.31228000       0.69394800       1.06647700      -0.26970200       0.10781500
H        1.07563000       7.22783000       5.46309000       0.64562400      -1.21959600       0.50743300       0.00176700
H        3.93049000       5.88126000       3.08350000       0.66343700       0.17210100       0.42143900       0.77153500
H        9.88383000       6.44441000       5.43423000       0.66329500      -0.20008200      -0.25097500      -0.38169200
H        3.96866000       6.55303000       4.57680000       0.63209200      -0.33803800      -0.56180300      -0.44639200
H        5.07656000       4.65370000      29.97869000       0.63763700      -0.93854300       0.70438800      -0.37012800
H        2.41507000       4.91622000       2.03389000       0.69068700      -1.01211500       0.18834500       0.22780500
H        3.57185000       5.09758000       1.07472000       0.69518100       1.03001200       0.74993000      -1.76082600
H        5.16024000       3.69180000      23.28900000       0.60767700       0.02922100       0.03006800       0.46846800
H        0.30073000       6.88255000      25.64370000       0.67599300       0.37785600      -0.23266800       0.23062300
H        9.32062000       0.50889000       1.37610000       0.65243000      -0.12106700      -0.20643500       0.73253200
H        1.36208000       7.41572000      24.72850000       0.61837600       0.54662700      -0.14035700      -0.08351300
H        4.37159000       2.57522000      24.09600000       0.67742100       1.08958600       0.52257900      -0.16002100
H        9.57977000       1.70689000       0.46050000       0.67835000       0.23508400      -0.19793100       0.09275100
H        5.12867000       7.92825000      22.34680000       0.57640600       0.25645700      -0.47477900       0.64125700
H        5.34172000       6.89619000      23.58670000       0.71146300       0.30036000      -0.16968000       0.11504100
H        6.79499000       7.94514000       5.43033000       0.66910300      -0.03636900       0.25033800      -1.01455000
H        2.32948000       6.18124000       6.94809000       0.63918200      -0.62088600      -1.07605000       2.23910000
H        7.30641000       6.72808000      24.52930000       0.64007600       0.71825300       0.24274800      -0.15437400
H        3.07395000       7.52349000       6.52991000       0.66963400      -0.09836300       0.06734800       0.54500100
H        6.50005000       2.84791000       0.53474000       0.71063500       0.69724000      -0.73086900      -1.65500400
H        6.40972000       6.45504000      25.71750000       0.67603200      -0.41699200      -0.18943500       0.07133200
H        9.03695000       1.54409000      22.64600000       0.66553600       1.33877300      -0.14087400       1.10449300
H        0.32670000       2.13939000      23.18620000       0.64889700      -0.38775500      -0.20513100       0.15510100
H        8.55941000       7.76631000      22.61160000       0.57603300      -0.31620800      -0.36173400      -0.23986700
H        0.87826000       1.42651000       4.96190000       0.67195000       0.41442200      -0.32787700       0.14542800
H        5.28799000       0.23221000      24.68980000       0.62800400      -0.46723200       0.38957200       1.14389500
H        1.09220000       1.90554000       6.38401000       0.63352900       0.12175300      -0.50642500      -0.45072800
H        4.99200000       8.68958000      26.16850000       0.68039700      -0.29077900      -0.01299900       0.13499700
H        3.62984000       4.79064000      29.41420000       0.67431000      -0.51628400      -0.98484400      -0.61288300
H        5.46672000       2.66996000       1.59842000       0.65802700       0.71141700       0.89656100       0.14503300
H        7.07550000       0.51798000      23.37980000       0.63369500       0.09530100      -0.65019100       0.23437600
H        6.58196000       2.03276000      23.38450000       0.65676900       1.49184600      -1.16099300      -0.24594800
H        7.21511000       2.09730000      28.15100000       0.67626900       0.31768400      -1.19455300      -0.85564500
H        6.32017000       3.36546000      27.74300000       0.62922600       0.91261100      -1.31487700       1.17233900
H        4.73260000       1.53362000       5.90586000       0.67308300       0.88810600       0.19313900      -0.88291800
H        5.85708000       1.01669000       4.89241000       0.67023900      -0.19799400       0.08842500       0.29428400