246
Lattice="10.140377178 0.0 0.0 0.0 8.78182424 0.0 0.0 0.0 30.131127158" Properties=species:S:1:pos:R:3:initial_charges:R:1:forces:R:3 NELECT0=1456.0 NELECT=1460.1540598145336 U_vs_SHE=-1.5815716772916524 stress="0.005840885379620189 -0.00044354036301264194 0.00039381425980673004 -0.00044354036301264194 0.002749078936004407 -0.00047321873890621683 0.00039381425980673004 -0.00047321873890621683 -0.004688421927071475" free_energy=-1800.36725181 energy=-1812.8585097077564 pbc="T T T"
Cu       7.01495000       1.04875000       9.67224000      -0.05011800       0.32705100       0.65592700       0.29004800
Cu       9.40692000       1.09900000      10.02230000      -0.08910900       0.42714300       0.21946600      -0.66054600
Cu       1.85312000       1.10239000      10.03770000      -0.11731400       0.25409200       0.17561700      -0.63497800
Cu       4.71146000       1.05583000      10.04350000      -0.11960600      -1.24437800       0.40683700      -0.53800100
Cu       8.21255000       3.33776000       9.88346000      -0.07396300       0.40909100       0.11528500      -0.06280300
Cu       0.63961000       3.32290000       9.90300000      -0.11850900      -0.13911200      -0.03922800       0.38843500
Cu       3.22852000       3.28437000       9.92187000      -0.08622500      -0.10387600      -0.07019000       0.25466500
Cu       5.83975000       3.29489000      10.03600000      -0.13330400      -0.64072900       0.12747500      -0.42227400
Cu       9.41439000       5.56780000       9.95239000      -0.08524900       0.18620100      -0.29253200      -0.55932800
Cu       1.77969000       5.56352000       9.87424000      -0.09603100       0.57380600      -0.03720200       0.26397700
Cu       4.46069000       5.51264000      10.00790000      -0.10335200      -0.22909600       0.19194500      -0.27438200
Cu       6.97663000       5.57604000       9.75922000      -0.08718000      -0.05225300      -0.46021700       0.40442200
Cu       0.58819000       7.73557000       9.82403000      -0.06497900       0.17507800       0.02630600       0.36500200
Cu       3.27776000       7.88339000       9.81483000      -0.09877800      -0.32174900      -0.80722100       0.18668100
Cu       5.85084000       7.69137000       9.73198000      -0.11022100      -0.86871700      -0.19698200       0.19347500
Cu       8.23174000       7.73553000       9.81049000      -0.09180600       0.44600400      -0.31832900       0.25445800
Cu       5.73308000       1.79764000      12.00280000      -0.01801100      -0.06971500       0.43973300       0.31543300
Cu       8.21562000       2.00750000      11.94810000       0.00571100      -0.11735500      -0.74734300       0.08799900
Cu       0.56398000       1.79305000      11.92630000      -0.00418800       0.33582500       0.43449400       0.58854700
Cu       3.12416000       1.80194000      12.00210000       0.00548300       0.33255400       0.08990000      -0.20255600
Cu       6.99017000       4.08641000      11.99730000      -0.00616600      -0.30111900       0.05654100      -0.11716000
Cu       9.52784000       4.09004000      11.96670000      -0.00228600      -0.09976000      -0.46698700      -0.09043500
Cu       1.89768000       4.05500000      11.95320000       0.00865200      -0.08079500      -0.16374600      -0.12400600
Cu       4.38969000       4.02784000      11.98170000      -0.00403800       0.35574400      -0.04259400       0.01244200
Cu       8.19298000       6.19533000      12.00070000      -0.00308900      -0.01720100       0.60895100      -0.29348500
Cu       0.48310000       6.21882000      11.91020000       0.00438400       0.89667200       0.53660300       0.36087900
Cu       3.10533000       6.22948000      12.03010000      -0.00653400       0.19306600      -0.29805900      -0.64705000
Cu       5.76684000       6.27165000      11.93090000      -0.00350000      -0.36063700      -0.13338900       0.06988300
Cu       9.42566000       8.48356000      12.01380000       0.00106800       0.28246700      -0.48423400      -0.28705500
Cu       1.95115000       8.34804000      11.94580000      -0.00426200      -0.67625600       0.18084100      -0.04281200
Cu       4.40272000       8.32284000      11.94780000       0.00877500       0.44256900       0.38085100       0.09856500
Cu       6.96872000       8.50358000      11.79630000       0.01927100      -0.03378300      -0.21025300       0.59853300
Cu       5.70396000       0.36591000      14.03060000      -0.01499500       0.02461900      -0.15083100      -0.07866200
Cu       8.23906000       0.36591000      14.03060000      -0.01095100      -0.20064800       0.11304400      -0.03985200
Cu       0.63377000       0.36591000      14.03060000       0.00915800       0.07785000      -0.02472400      -0.03817900
Cu       3.16887000       0.36591000      14.03060000      -0.03515000       0.01656700      -0.08092000       0.05265700
Cu       6.97151000       2.56137000      14.03060000      -0.01850400      -0.03469100       0.02407600       0.17245600
Cu       9.50660000       2.56137000      14.03060000      -0.01453800       0.04196600       0.00358900       0.00224400
Cu       1.90132000       2.56137000      14.03060000      -0.01863900      -0.11659400       0.01129700      -0.02396200
Cu       4.43642000       2.56137000      14.03060000      -0.01808300      -0.00815200      -0.03049000       0.07563600
Cu       8.23906000       4.75682000      14.03060000      -0.00552500       0.05160400      -0.06163000       0.21516500
Cu       0.63377000       4.75682000      14.03060000      -0.01624200       0.07801900       0.03729100       0.00810000
Cu       3.16887000       4.75682000      14.03060000      -0.04129800      -0.04288700      -0.09324300       0.18604200
Cu       5.70396000       4.75682000      14.03060000       0.01437700      -0.06272900       0.05282300      -0.00875000
Cu       9.50660000       6.95228000      14.03060000      -0.03806000      -0.00327600       0.02557900       0.04535700
Cu       1.90132000       6.95228000      14.03060000      -0.01178900      -0.20609800      -0.02057400       0.08595300
Cu       4.43642000       6.95228000      14.03060000      -0.01343600       0.06585500      -0.04939500       0.06653000
Cu       6.97151000       6.95228000      14.03060000       0.01469100      -0.04212400       0.17031200      -0.09689800
Cu       6.97151000       1.09773000      16.10050000      -0.01253600       0.02987500       0.00524400       0.11464600
Cu       9.50660000       1.09773000      16.10050000      -0.01084400       0.05138000      -0.02187800       0.00759700
Cu       1.90132000       1.09773000      16.10050000      -0.01979100       0.05200600       0.06529500      -0.05364700
Cu       4.43642000       1.09773000      16.10050000      -0.01935500       0.16279900       0.01380800       0.02826100
Cu       8.23906000       3.29318000      16.10050000       0.01129100      -0.08496700      -0.10584100      -0.18701100
Cu       0.63377000       3.29318000      16.10050000      -0.04150900       0.16985100       0.00138400      -0.19553100
Cu       3.16887000       3.29318000      16.10050000      -0.01925200      -0.10458700       0.05012000       0.22087500
Cu       5.70396000       3.29318000      16.10050000      -0.01239800      -0.18465000       0.01329600      -0.00931500
Cu       9.50660000       5.48864000      16.10050000      -0.03823700       0.06275800      -0.03807000      -0.12644800
Cu       1.90132000       5.48864000      16.10050000       0.01561200      -0.01428200       0.05559900       0.34826900
Cu       4.43642000       5.48864000      16.10050000      -0.01605700      -0.01411000       0.13466100       0.12889300
Cu       6.97151000       5.48864000      16.10050000      -0.01290600      -0.06712800       0.17248700      -0.06714700
Cu       0.63377000       7.68410000      16.10050000      -0.01407800      -0.14868000      -0.04994600       0.08595500
Cu       3.16887000       7.68410000      16.10050000       0.00853600       0.15903300      -0.00067600       0.09153900
Cu       5.70396000       7.68410000      16.10050000      -0.02526100       0.00410800      -0.04810100       0.10545800
Cu       8.23906000       7.68410000      16.10050000      -0.04031900       0.07521300       0.16363500      -0.18322400
Cu       5.85379000       1.93470000      18.23000000       0.00016900      -0.54841900      -0.50101100       0.00094300
Cu       8.31899000       1.81407000      18.19350000       0.00790800      -0.43083500       0.34642100      -0.10210700
Cu       0.65934000       1.85486000      18.16570000      -0.00551300       0.50442900      -0.41515200      -0.21946100
Cu       3.28236000       1.78541000      18.15560000      -0.00434800      -0.24404900       0.57126700       0.07069700
Cu       6.94330000       4.06056000      18.08830000       0.00004600       0.32999400       0.31032900       0.57804300
Cu       9.53274000       3.93182000      18.09470000       0.00402600      -0.68080800       0.78606400       0.47458400
Cu       1.75566000       4.11011000      18.27300000       0.00223700       0.98729700      -0.08897200      -0.36854600
Cu       4.34478000       4.15356000      18.18330000       0.00601000       0.06802900      -0.66077500       0.32208900
Cu       8.28711000       6.29270000      18.10650000      -0.00544800      -0.62546300      -0.63875800       0.42072800
Cu       0.47559000       6.21499000      18.24880000      -0.00041600       0.98233300       0.24011700      -0.12820800
Cu       3.13877000       6.30465000      18.26340000       0.01142800      -0.07887600      -0.24501700      -0.01871700
Cu       5.69107000       6.20933000      18.26270000       0.00359000       0.18107800       0.29106200      -0.50137700
Cu       9.44883000       8.47812000      18.25490000       0.00418300       0.73252500      -0.22709500      -0.75607400
Cu       1.88922000       8.36740000      18.09810000      -0.00152800      -0.14380100       0.30740600       0.43286900
Cu       4.54714000       8.45916000      18.21860000      -0.00362000      -0.38324700      -0.17329100      -0.36519500
Cu       7.02274000       8.35406000      18.16980000       0.00500200      -0.34454200       0.46567100       0.02210100
Cu       5.76967000       0.31472000      20.19670000      -0.08738300       0.01445000       0.51602900       0.11984400
Cu       8.26793000       0.45900000      20.19950000      -0.03943600      -0.33098200       0.09024300       0.31169300
Cu       0.65380000       0.42134000      20.19560000      -0.03610200       0.03068300      -0.00804100       0.03372200
Cu       3.08573000       0.38176000      20.12360000      -0.06350800       0.72826800      -0.09182500       0.24994300
Cu       7.15295000       2.78887000      20.22990000      -0.04727600      -0.22187200      -0.56900400      -0.08392300
Cu       9.71471000       2.64441000      20.19190000      -0.04164100      -0.70282800       0.09873900       0.13318900
Cu       2.00452000       2.58072000      20.16790000      -0.09163300       0.26458400       0.14101700       0.13696400
Cu       4.63194000       2.62565000      20.31620000      -0.07434500      -0.46597100      -0.12753400      -0.47719900
Cu       8.30631000       4.87373000      20.21310000      -0.08734300       0.22571800      -0.11919400      -0.19738400
Cu       0.62901000       4.84824000      20.34140000      -0.10272500       0.07936000       0.07689100      -0.02607600
Cu       3.12649000       4.76970000      20.37750000      -0.08340000       0.28212000       0.21471000      -0.40946100
Cu       5.69904000       4.86688000      20.28350000      -0.07559400       0.17140200      -0.46901500      -0.06101600
Cu       9.50073000       7.12382000      20.27590000      -0.10112300       0.15782400      -0.61554000       0.15161400
Cu       1.87703000       7.02159000      20.38800000      -0.10322700       0.10487200      -0.28697200      -0.51889700
Cu       4.51672000       6.99769000      20.30000000      -0.08793700      -0.54740700      -0.02516700      -0.17047500
Cu       7.06912000       6.92518000      20.29220000      -0.08212600      -0.29955100       0.46419700      -0.19178600
O        0.23435000       2.70370000      26.62910000      -1.37077000       0.09479700      -0.87460800       0.25408600
O        4.67729000       3.41807000      26.54350000      -1.36692600       0.46302000       0.20596200      -0.39508400
O        8.62924000       7.85827000      23.57010000      -1.29523000       1.64356400       0.49360900       0.31665300
O        9.40165000       4.98934000      27.87530000      -1.34004500      -0.24444000      -0.56139500       0.51486600
O       10.04450000       3.92392000      24.00640000      -1.31371900       0.86034500       0.54304400       0.60374800
O        2.81352000       5.37414000      26.96680000      -1.36242100       1.35366600      -0.10751600       0.30720300
O        9.63874000       7.57098000      26.95650000      -1.32177500      -1.00730100       1.81410600       1.04810800
O        1.28134000       0.51486000      27.89640000      -1.39510300      -1.46722900      -0.78102800       0.11800400
O        5.55367000       0.95106000       0.11160000      -1.28415600      -0.14376000      -1.28676600       0.69362800
O        2.84044000       2.40814000      24.47540000      -1.28862000      -0.48260500      -1.81674600      -1.35564400
O        3.91072000       1.37499000      27.86140000      -1.36014900      -0.67710300       0.50526700       0.04542200
O        3.32314000       0.29301000       1.68765000      -1.37455500      -0.48792600      -2.28497600      -1.97783800
O        3.91002000       3.68823000       6.77438000      -1.33637500      -0.75444700       1.69656700      -1.84872800
O       10.00385000       2.48703000       3.29336000      -1.26415000      -0.71006400       0.67053200       1.61752000
O        0.26824000       3.07597000       0.50287000      -1.28148600       0.57385600       0.13243300      -0.47134000
O        4.22436000       2.37111000       2.84709000      -1.37235100      -0.28180200       0.55254400       0.35559500
O        7.06616000       3.56221000       6.25557000      -1.34789200       0.23576600       0.22583500      -0.82012700
O        7.97661000       5.16747000       0.99377000      -1.34594400      -1.14538200      -1.47812600      -1.36760500
O        3.58969000       0.70065000       6.68572000      -1.33690700       1.22284900      -0.49276700       0.92186700
O        8.74387000       8.60107000       3.14763000      -1.34276900       2.06539100      -0.03988500       0.55592800
O        0.81976000       5.62440000       2.37130000      -1.32133300       0.37594600       0.01109800      -3.02587500
O        1.27900000       3.69752000       6.89814000      -1.33281800       0.16682300      -0.01571500       0.33960000
O        3.51203000       5.20382000      23.52350000      -1.30258300       0.43471300       0.22399300       0.32561700
O        1.35927000       7.60966000       0.36656000      -1.32847600      -0.49935600      -0.65162500       0.05405700
O        7.16564000       7.43381000      29.07420000      -1.28197200      -1.31323100       0.76412000      -0.56578600
O        9.39723000       4.68907000       5.14870000      -1.36091500       1.45151000      -0.72105400       0.63189500
O        7.71767000       0.63718000      26.78750000      -1.28669400       1.80073800       1.57146900      -0.47737400
O        8.04216000       7.89278000       6.54497000      -1.36405100      -0.94115900      -0.26941000      -1.27079000
O        6.48573000       8.19973000       4.50977000      -1.35964600      -0.76491900      -0.43492100       0.30098800
O        2.54915000       3.51788000      28.89430000      -1.32060100       0.29880900      -1.41929700      -0.20922100
O        5.42673000       5.81122000       6.51625000      -1.38905000      -1.44260600       0.96037000      -0.31852400
O        0.08718000       7.34730000       5.30094000      -1.32157300       1.36467700      -0.61685900      -0.49754300
O        4.18924000       6.66920000       3.64114000      -1.36929700       0.09928600      -0.01873400      -0.80662700
O        3.30856000       4.62025000       1.84405000      -1.38837300      -0.28524400      -0.65639800       2.00620800
O        5.31081000       2.97807000      23.93310000      -1.30753500      -0.87699100      -0.45014100      -0.00427100
O        1.15127000       6.60792000      25.21250000      -1.31122400      -0.96433700       0.05717300      -0.02351200
O        9.22844000       0.79201000       0.47199000      -1.36346600      -0.40427000      -0.40671300      -0.84742700
O        4.98769000       7.76187000      23.30720000      -1.36257800      -0.25464400       0.67360700       0.00928400
O        6.18869000       3.28733000       1.29799000      -1.37750800      -1.15658300       0.34221800       1.27860500
O        2.63849000       6.70349000       6.25819000      -1.34288200       0.57210200       1.30941600      -3.30903000
O        6.62986000       6.12475000      24.82780000      -1.31603100      -0.43754100      -0.19986600       0.59739500
O       10.01670000       1.33840000      22.85840000      -1.33407100      -0.70444100       0.15687300      -0.34002800
O        1.25551000       1.10730000       5.81526000      -1.30945600      -1.03087500       1.19812500      -0.56607100
O        5.10419000       0.67505000      25.56500000      -1.33205500       0.88690800      -0.77863300      -0.79175800
O        4.37608000       5.30907000      29.70500000      -1.31300800       1.95353900       0.32635000       0.78728100
O        7.39216000       1.38986000      23.16130000      -1.30263400      -2.03904800       2.39347400       0.46148900
O        6.84575000       2.89812000      28.46990000      -1.32566200      -1.12293100       2.74755800      -0.10764300
O        5.44654000       1.84666000       5.25613000      -1.34516100      -0.20059100      -0.66879700      -0.41328000
O        2.26640000       8.68036000      23.14640000      -1.32747700       0.21204300      -0.35325900       0.31898100
O        5.12245000       7.13084000      27.15680000      -1.34028700       0.49916300       0.35201100       0.34073300
H        0.19229000       2.86382000      25.69340000       0.67393300      -0.03582100       0.16740400      -1.14312500
H        0.00612000       3.55845000      27.00120000       0.68921800      -0.36696200       0.70977400       0.60832000
H        4.04103000       4.15784000      26.57980000       0.68134600      -0.11095000       0.35362500      -0.05112800
H        4.98888000       3.36586000      25.60180000       0.69027800       0.05040500       0.04798800       0.40795200
H        0.17109000       3.48029000       1.36999000       0.68627900      -0.23940100       0.14389200       0.35076100
H        9.46827000       8.42043000      23.58650000       0.63900500      -1.45057300      -0.57676000       0.27564700
H        8.59277000       4.69016000      28.36510000       0.64898400       0.78712300       1.01042200      -0.84957500
H        9.45243000       5.95623000      27.64920000       0.67565000      -0.63538300      -0.62421700       0.36014400
H        0.51442000       4.70023000      24.02600000       0.64888200      -0.68891100      -0.51592200      -0.11686200
H        9.74397000       3.83187000      23.09980000       0.63131800      -0.20025300       0.44736500      -0.45005600
H        0.87929000       1.23130000      27.40460000       0.68755200      -0.35938100       0.85556700      -0.25648400
H        2.41592000       4.76674000      27.57910000       0.67348700      -0.43310600      -0.63841400       0.92195600
H        4.15156000       3.18363000       7.52612000       0.63048900       0.74428000      -0.46793500       1.57752500
H        0.24224000       8.12597000      27.35440000       0.67237300      -0.24087200      -0.70887300      -0.27064400
H        4.57591000       1.17662000      28.53740000       0.67220000       0.27113000       0.19657900       0.10310200
H        2.17344000       0.79611000      28.00100000       0.69853300       1.79146800      -0.00816500       0.05720400
H        6.38146000       0.43184000       0.24637000       0.62283900      -0.81226700       0.39134400      -0.39002900
H        2.72609000       1.53516000      23.94960000       0.65914800      -0.10729600       1.17772300       0.52843100
H        2.82597000       2.08592000      25.37720000       0.64625600       0.12029300       0.02022200       0.45490800
H        7.84327000       8.61104000       3.44001000       0.68206200      -1.40896500      -0.22371300       0.46671600
H        4.22792000       2.13133000      27.25870000       0.68602700       0.32110800      -0.67692600       0.46382300
H        3.12995000       4.34057000      23.69170000       0.63760800      -0.44002800      -0.19257000      -0.09151800
H        3.52541000       1.01157000       2.24764000       0.72739400       0.53636100       2.22732800       1.48356100
H        3.56491000       8.28940000       2.17827000       0.64703500       0.00760600      -0.46619700       0.44061000
H        2.11851000       5.64241000      26.38260000       0.69049500      -0.72575900       0.89009200      -1.22472300
H        4.35246000       4.61232000       6.76660000       0.66314800      -0.18316600      -1.17671900       0.33806500
H        9.33685000       1.81148000       3.50565000       0.61322500       0.16612400      -0.36272300      -0.65208100
H        9.73554000       3.18335000       3.96242000       0.62514700       0.60987700      -0.19661000      -0.94248000
H        8.86041000       8.24493000      26.96270000       0.64164000       1.03086800      -1.40020200      -0.50018100
H        9.89100000       3.59696000      30.01689000       0.63015800      -0.10240200       0.52732500       0.00889300
H        4.67539000       2.30321000       3.73057000       0.68364500      -0.43369700       0.37759500      -0.23823100
H        6.46224000       2.84246000       5.88180000       0.69457900       0.07552700       0.38272800       0.41636200
H        6.82408000       3.72799000       7.16875000       0.59986700       0.11328900      -0.43191300       0.61127000
H        8.25343000       5.75482000       1.64705000       0.64097600       0.93423300       1.47816400       1.77821900
H        7.29442000       4.58806000       1.42765000       0.68487500       0.41046100       0.26350800      -0.55596100
H        3.44214000       0.87127000       7.64359000       0.59267500       0.15388700      -0.18734700      -0.23563000
H        2.77479000       0.95947000       6.24197000       0.69217800      -1.07446800       0.15559900      -0.48235400
H        3.78109000       3.25831000       2.68038000       0.68664000       0.76192700      -0.93879100       0.25782100
H        9.22497000       8.27762000       3.95910000       0.64093500      -0.24119400       0.12096400      -1.04717900
H        0.84994000       6.39344000       1.72034000       0.65574700       0.18978000      -0.75823000       0.49879500
H        0.66047000       6.02634000       3.18533000       0.66022300      -0.51790900       0.96875100       2.33985300
H        4.85612000       0.51718000       0.68771000       0.64748700       0.66768800       0.50772300      -0.62630700
H        2.30871000       3.72338000       6.85441000       0.67402900      -0.89192900       0.04240500       0.25394700
H        1.00738000       3.73897000       7.87106000       0.54978100       0.53674000       0.08116800      -1.00472100
H        3.03818000       5.58841000      22.77520000       0.60657500      -0.14529900      -0.14737200      -0.22143600
H        2.00698000       8.29999000       0.57164000       0.66609600      -0.25422000       0.16991000       0.12517600
H        7.93804000       7.65920000      28.58530000       0.63712100       0.90516800       0.45669600      -0.63789700
H       10.07930000       4.32781000       5.80178000       0.65018400      -0.54043500       0.47491400      -0.64931000
H        7.48884000       6.89918000      29.76640000       0.64314600       0.41363500      -1.39135700       1.47162800
H        0.55091000       8.04631000       0.04340000       0.65812900       0.47880300       0.36238800       0.12822600
H        8.58608000       4.26157000       5.45301000       0.70337800      -0.74844200       0.01274500       0.40996700
H        8.39113000       1.25744000      26.36510000       0.61865700      -1.00660200      -0.87524100       0.77193500
H        6.93234000       0.79837000      26.24630000       0.67891400      -0.92103000      -0.28378400      -0.39822800
H        8.88945000       7.92694000       6.04674000       0.68503500       0.07678900       0.19298000       1.25672000
H        5.78507000       7.56127000       4.25100000       0.67066600       0.33989600       0.29830400       0.02081000
H        2.96741000       2.65252000      28.53430000       0.64901700      -0.32602100       1.13430900       0.64141200
H        8.07596000       8.12619000       7.47252000       0.61912900       0.54092000       0.24217000       0.50486300
H        2.01821000       3.24190000      29.66070000       0.65270400      -0.22033200       0.08828800      -0.16487500
H        5.51830000       6.31917000       7.34753000       0.66237800       0.59593300      -0.50686200      -0.13189100
H        6.14181000       5.20859000       6.31228000       0.68666700       0.96056700      -0.20958600       0.30742600
H        1.07563000       7.22783000       5.46309000       0.64606800      -1.05380800       0.47308500       0.22489100
H        3.93049000       5.88126000       3.08350000       0.65371700       0.22402800       0.56436600       0.98681600
H        9.88383000       6.44441000       5.43423000       0.66532600      -0.20995700      -0.20836200      -0.19986700
H        3.96866000       6.55303000       4.57680000       0.69616100      -0.35999800      -0.56200000      -0.15556900
H        5.07656000       4.65370000      29.97869000       0.63456900      -0.95750300       0.70569900      -0.37744500
H        2.41507000       4.91622000       2.03389000       0.69054800      -1.01298900       0.20685600       0.29499500
H        3.57185000       5.09758000       1.07472000       0.69148500       0.98854000       0.72630500      -1.67572700
H        5.16024000       3.69180000      23.28900000       0.62477600       0.02704300       0.03191900       0.20284500
H        0.30073000       6.88255000      25.64370000       0.66457400       0.56265300      -0.33421400      -0.11046800
H        9.32062000       0.50889000       1.37610000       0.65371300      -0.15002900      -0.19956600       0.79867800
H        1.36208000       7.41572000      24.72850000       0.62883500       0.60331200      -0.09824400      -0.37844700
H        4.37159000       2.57522000      24.09600000       0.67140600       1.25165600       0.59515000      -0.40089600
H        9.57977000       1.70689000       0.46050000       0.67591200       0.20342000      -0.28841100       0.10500800
H        5.12867000       7.92825000      22.34680000       0.59656300       0.24875300      -0.46884900       0.30413900
H        5.34172000       6.89619000      23.58670000       0.69989800       0.12703100       0.03433900      -0.22822600
H        6.79499000       7.94514000       5.43033000       0.68517700       0.20663400       0.21293100      -0.53875800
H        2.32948000       6.18124000       6.94809000       0.65133700      -0.60575000      -1.08716500       2.47811700
H        7.30641000       6.72808000      24.52930000       0.64636700       0.77892900       0.32038400      -0.39440300
H        3.07395000       7.52349000       6.52991000       0.67376700      -0.09264100       0.07213900       0.75570600
H        6.50005000       2.84791000       0.53474000       0.70846200       0.69358300      -0.71836400      -1.65494200
H        6.40972000       6.45504000      25.71750000       0.65767900      -0.31939200      -0.20270800      -0.20479400
H        9.03695000       1.54409000      22.64600000       0.66638300       1.43688300      -0.10727600       0.85647500
H        0.32670000       2.13939000      23.18620000       0.63696100      -0.43256000      -0.30510200      -0.11191300
H        8.55941000       7.76631000      22.61160000       0.59551000      -0.32583900      -0.41113800      -0.51504900
H        0.87826000       1.42651000       4.96190000       0.65097200       0.46964300      -0.35676500       0.41925700
H        5.28799000       0.23221000      24.68980000       0.65079700      -0.48284700       0.26090700       0.77184800
H        1.09220000       1.90554000       6.38401000       0.64484100       0.13151300      -0.33603800      -0.17624700
H        4.99200000       8.68958000      26.16850000       0.66807500      -0.27391900       0.13518700      -0.13186400
H        3.62984000       4.79064000      29.41420000       0.67482900      -0.52361700      -0.99376600      -0.65701100
H        5.46672000       2.66996000       1.59842000       0.65890200       0.63917100       0.87496400       0.26880500
H        7.07550000       0.51798000      23.37980000       0.62347800       0.07557900      -0.64253100       0.02947800
H        6.58196000       2.03276000      23.38450000       0.64086200       1.67721600      -1.32189600      -0.51541400
H        7.21511000       2.09730000      28.15100000       0.67729100       0.33029300      -1.21979700      -0.94332600
H        6.32017000       3.36546000      27.74300000       0.63428500       0.85009900      -1.30943500       1.05289600
H        4.73260000       1.53362000       5.90586000       0.68230600       0.59949300       0.07139200      -0.49941500