246
Lattice="10.140377178 0.0 0.0 0.0 8.78182424 0.0 0.0 0.0 30.131127158" Properties=species:S:1:pos:R:3:initial_charges:R:1:forces:R:3 NELECT0=1456.0 NELECT=1456.0 U_vs_SHE=2.659994413343723 stress="0.013838861279182138 -0.0006546531676865173 0.00023191575459044424 -0.0006546531676865173 0.01245385792113039 0.00031918453518854395 0.00023191575459044424 0.00031918453518854395 0.008522556017065058" free_energy=-1809.41893693 energy=-1809.2954535 pbc="T T T"
Cu       7.01495000       1.04875000       9.67224000       0.02332200       0.31516800       0.66591000       0.27232800
Cu       9.40692000       1.09900000      10.02230000      -0.03722300       0.43879000       0.22767200      -0.62354900
Cu       1.85312000       1.10239000      10.03770000      -0.06148900       0.23390600       0.18299500      -0.57165500
Cu       4.71146000       1.05583000      10.04350000      -0.06638700      -1.22135100       0.39867800      -0.46668200
Cu       8.21255000       3.33776000       9.88346000      -0.01160600       0.41629100       0.11170000      -0.04522300
Cu       0.63961000       3.32290000       9.90300000      -0.05056100      -0.13161100      -0.04574500       0.41339200
Cu       3.22852000       3.28437000       9.92187000      -0.02393600      -0.10464700      -0.04204100       0.24059400
Cu       5.83975000       3.29489000      10.03600000      -0.07361900      -0.64225400       0.13103200      -0.33329400
Cu       9.41439000       5.56780000       9.95239000      -0.03038200       0.18879000      -0.28280500      -0.50876200
Cu       1.77969000       5.56352000       9.87424000      -0.02823700       0.56465000      -0.04126200       0.30466500
Cu       4.46069000       5.51264000      10.00790000      -0.04821800      -0.22304300       0.17568500      -0.23179500
Cu       6.97663000       5.57604000       9.75922000      -0.01832400      -0.04793800      -0.45352600       0.45177700
Cu       0.58819000       7.73557000       9.82403000       0.00414200       0.17150200       0.03147000       0.39688000
Cu       3.27776000       7.88339000       9.81483000      -0.02619100      -0.32319300      -0.78988800       0.23191200
Cu       5.85084000       7.69137000       9.73198000      -0.03702500      -0.85940800      -0.16673600       0.28187400
Cu       8.23174000       7.73553000       9.81049000      -0.02564400       0.44662900      -0.33478300       0.29186700
Cu       5.73308000       1.79764000      12.00280000       0.00128700      -0.06908600       0.46140500       0.30312400
Cu       8.21562000       2.00750000      11.94810000       0.02562300      -0.11615400      -0.72923400       0.07417700
Cu       0.56398000       1.79305000      11.92630000       0.01535000       0.33038700       0.44404400       0.56175500
Cu       3.12416000       1.80194000      12.00210000       0.02565200       0.33232800       0.10251700      -0.22507100
Cu       6.99017000       4.08641000      11.99730000       0.01514400      -0.30219300       0.06663200      -0.11038500
Cu       9.52784000       4.09004000      11.96670000       0.01808000      -0.09077400      -0.44847100      -0.08846800
Cu       1.89768000       4.05500000      11.95320000       0.02953100      -0.08317800      -0.14848400      -0.14064800
Cu       4.38969000       4.02784000      11.98170000       0.01512000       0.34850700      -0.03418700       0.00828500
Cu       8.19298000       6.19533000      12.00070000       0.01601900      -0.00939600       0.62525500      -0.28395400
Cu       0.48310000       6.21882000      11.91020000       0.02398600       0.89175800       0.55361200       0.33405900
Cu       3.10533000       6.22948000      12.03010000       0.01271700       0.18609900      -0.27552800      -0.65364800
Cu       5.76684000       6.27165000      11.93090000       0.01616200      -0.36291500      -0.11596800       0.04661800
Cu       9.42566000       8.48356000      12.01380000       0.01961700       0.28444900      -0.47554400      -0.27700900
Cu       1.95115000       8.34804000      11.94580000       0.01548800      -0.67239800       0.18368900      -0.05446800
Cu       4.40272000       8.32284000      11.94780000       0.02859000       0.42161400       0.38110700       0.08838300
Cu       6.96872000       8.50358000      11.79630000       0.04159000      -0.02244600      -0.20769400       0.55583200
Cu       5.70396000       0.36591000      14.03060000       0.00519000       0.01907900      -0.16153000      -0.11497900
Cu       8.23906000       0.36591000      14.03060000       0.00665500      -0.19881900       0.10166500      -0.07274800
Cu       0.63377000       0.36591000      14.03060000       0.02793000       0.08224800      -0.02750900      -0.05900600
Cu       3.16887000       0.36591000      14.03060000      -0.01570700       0.01471100      -0.09163100       0.02910300
Cu       6.97151000       2.56137000      14.03060000       0.00066400      -0.03392000       0.01144300       0.14453800
Cu       9.50660000       2.56137000      14.03060000       0.00451000       0.04427000      -0.01192300      -0.01514500
Cu       1.90132000       2.56137000      14.03060000       0.00097500      -0.11739300       0.00815900      -0.02695300
Cu       4.43642000       2.56137000      14.03060000       0.00113600      -0.00367000      -0.03909900       0.06101200
Cu       8.23906000       4.75682000      14.03060000       0.01309600       0.04821000      -0.06112000       0.20654200
Cu       0.63377000       4.75682000      14.03060000       0.00334100       0.08469300       0.03750600       0.00184300
Cu       3.16887000       4.75682000      14.03060000      -0.02154400      -0.04409900      -0.09013300       0.16792100
Cu       5.70396000       4.75682000      14.03060000       0.03160100      -0.06623800       0.05074000      -0.02162800
Cu       9.50660000       6.95228000      14.03060000      -0.02100700      -0.00120700       0.01155900       0.03773700
Cu       1.90132000       6.95228000      14.03060000       0.00645100      -0.20645000      -0.03719600       0.08618300
Cu       4.43642000       6.95228000      14.03060000       0.00512200       0.07278400      -0.06018400       0.06203500
Cu       6.97151000       6.95228000      14.03060000       0.03339100      -0.04471100       0.15240400      -0.09798800
Cu       6.97151000       1.09773000      16.10050000       0.00640000       0.03280400       0.01463200       0.13255200
Cu       9.50660000       1.09773000      16.10050000       0.00760800       0.04573600      -0.01304000       0.01556200
Cu       1.90132000       1.09773000      16.10050000      -0.00141700       0.04802400       0.07157900      -0.03318000
Cu       4.43642000       1.09773000      16.10050000       0.00012100       0.16559300       0.01575100       0.04088400
Cu       8.23906000       3.29318000      16.10050000       0.02886000      -0.08655800      -0.10066000      -0.16663700
Cu       0.63377000       3.29318000      16.10050000      -0.02243200       0.17187400       0.00390700      -0.16815900
Cu       3.16887000       3.29318000      16.10050000      -0.00002600      -0.09751100       0.06338600       0.24354300
Cu       5.70396000       3.29318000      16.10050000       0.00783000      -0.18638900       0.01251400       0.01337700
Cu       9.50660000       5.48864000      16.10050000      -0.01834500       0.05910800      -0.02795300      -0.08536700
Cu       1.90132000       5.48864000      16.10050000       0.03547900      -0.01055100       0.06107200       0.37372200
Cu       4.43642000       5.48864000      16.10050000       0.00221100      -0.01821700       0.13948500       0.14442000
Cu       6.97151000       5.48864000      16.10050000       0.00515700      -0.06588900       0.17822800      -0.04805200
Cu       0.63377000       7.68410000      16.10050000       0.03080800      -0.14493900      -0.04369700       0.10573600
Cu       3.16887000       7.68410000      16.10050000       0.00341000       0.16230400      -0.00162400       0.10494900
Cu       5.70396000       7.68410000      16.10050000      -0.00555800       0.00056300      -0.03988300       0.11925500
Cu       8.23906000       7.68410000      16.10050000      -0.02167200       0.07278300       0.17620000      -0.17311600
Cu       5.85379000       1.93470000      18.23000000       0.01982300      -0.54302600      -0.49518300       0.01027900
Cu       8.31899000       1.81407000      18.19350000       0.02820600      -0.42470700       0.34117600      -0.09991400
Cu       0.65934000       1.85486000      18.16570000       0.01230700       0.49917100      -0.42164100      -0.21831700
Cu       3.28236000       1.78541000      18.15560000       0.01572700      -0.23869900       0.56549800       0.07433000
Cu       6.94330000       4.06056000      18.08830000       0.01878000       0.32966500       0.27731800       0.58153800
Cu       9.53274000       3.93182000      18.09470000       0.02302100      -0.68875200       0.74513600       0.48403700
Cu       1.75566000       4.11011000      18.27300000       0.02254900       0.98637000      -0.11645300      -0.30928300
Cu       4.34478000       4.15356000      18.18330000       0.02728100       0.07181400      -0.67764600       0.34623700
Cu       8.28711000       6.29270000      18.10650000       0.01521100      -0.63428200      -0.63794500       0.39807600
Cu       0.47559000       6.21499000      18.24880000       0.02361000       0.97477400       0.24011000      -0.10781600
Cu       3.13877000       6.30465000      18.26340000       0.03267700      -0.06809100      -0.24883300       0.02770000
Cu       5.69107000       6.20933000      18.26270000       0.02434900       0.17694600       0.28836000      -0.46954600
Cu       9.44883000       8.47812000      18.25490000       0.02291100       0.72275300      -0.23013700      -0.71124700
Cu       1.88922000       8.36740000      18.09810000       0.01818100      -0.14483800       0.30088000       0.44448400
Cu       4.54714000       8.45916000      18.21860000       0.01588600      -0.37361400      -0.18512700      -0.33072600
Cu       7.02274000       8.35406000      18.16980000       0.02460400      -0.34073700       0.45301100       0.04825700
Cu       5.76967000       0.31472000      20.19670000      -0.02838500       0.03578700       0.54080300       0.10801700
Cu       8.26793000       0.45900000      20.19950000       0.01400300      -0.34367500       0.12638700       0.40108500
Cu       0.65380000       0.42134000      20.19560000       0.01350100       0.00435700       0.04614500       0.12511500
Cu       3.08573000       0.38176000      20.12360000      -0.01768900       0.72263000      -0.08894300       0.26162300
Cu       7.15295000       2.78887000      20.22990000       0.00754300      -0.23232400      -0.60870600      -0.01888400
Cu       9.71471000       2.64441000      20.19190000       0.01323100      -0.67848800       0.03344300       0.19494400
Cu       2.00452000       2.58072000      20.16790000      -0.03543000       0.25775100       0.12578300       0.10815100
Cu       4.63194000       2.62565000      20.31620000      -0.00632900      -0.46266700      -0.14325300      -0.45829900
Cu       8.30631000       4.87373000      20.21310000      -0.02571100       0.21204100      -0.11375900      -0.28159800
Cu       0.62901000       4.84824000      20.34140000      -0.03076500       0.07824100       0.07679600      -0.09465600
Cu       3.12649000       4.76970000      20.37750000      -0.01831800       0.30820300       0.18998100      -0.38300300
Cu       5.69904000       4.86688000      20.28350000      -0.01207900       0.17220300      -0.47171800      -0.10500200
Cu       9.50073000       7.12382000      20.27590000      -0.03937300       0.16414400      -0.62820200       0.10143600
Cu       1.87703000       7.02159000      20.38800000      -0.02908200       0.09798500      -0.25644600      -0.57181700
Cu       4.51672000       6.99769000      20.30000000      -0.02410700      -0.53392800      -0.02951200      -0.16841100
Cu       7.06912000       6.92518000      20.29220000      -0.01711500      -0.29889500       0.44890500      -0.25785200
O        0.23435000       2.70370000      26.62910000      -1.35835800       0.12794300      -0.95165800      -0.09612900
O        4.67729000       3.41807000      26.54350000      -1.34783000       0.53306800       0.16817400      -0.93184100
O        8.62924000       7.85827000      23.57010000      -1.24424100       1.67981800       0.53547300      -0.27986500
O        9.40165000       4.98934000      27.87530000      -1.33844600      -0.20372000      -0.55158600       0.31082800
O       10.04450000       3.92392000      24.00640000      -1.26795900       0.82348400       0.40648400      -0.01491200
O        2.81352000       5.37414000      26.96680000      -1.35539600       1.35479700      -0.05123800      -0.04123000
O        9.63874000       7.57098000      26.95650000      -1.32166600      -0.94721000       1.78890400       0.68353900
O        1.28134000       0.51486000      27.89640000      -1.38143300      -1.53573900      -0.84654800      -0.03414900
O        5.55367000       0.95106000       0.11160000      -1.26542500      -0.12045000      -1.21885300       0.67087100
O        2.84044000       2.40814000      24.47540000      -1.28649000      -0.43311400      -1.88501000      -1.88945000
O        3.91072000       1.37499000      27.86140000      -1.35362300      -0.63938000       0.53893000      -0.24762900
O        3.32314000       0.29301000       1.68765000      -1.36328300      -0.51459800      -2.26530100      -1.89707300
O        3.91002000       3.68823000       6.77438000      -1.29667500      -0.87323400       1.63750900      -1.26358600
O       10.00385000       2.48703000       3.29336000      -1.24449000      -0.61475700       0.65272000       1.93661800
O        0.26824000       3.07597000       0.50287000      -1.27657000       0.49503400      -0.03528700      -0.42679500
O        4.22436000       2.37111000       2.84709000      -1.36050400      -0.17110100       0.45606800       0.73072700
O        7.06616000       3.56221000       6.25557000      -1.31315400       0.32195200       0.41416300      -0.18013800
O        7.97661000       5.16747000       0.99377000      -1.32840400      -1.14045300      -1.53659100      -1.35436000
O        3.58969000       0.70065000       6.68572000      -1.30705600       1.32751100      -0.62120300       1.77437900
O        8.74387000       8.60107000       3.14763000      -1.31919900       2.05880100      -0.03201600       0.78117400
O        0.81976000       5.62440000       2.37130000      -1.30681500       0.35767700      -0.00419500      -2.87693600
O        1.27900000       3.69752000       6.89814000      -1.27755300       0.15598300       0.05344700       1.21303600
O        3.51203000       5.20382000      23.52350000      -1.23975400       0.50995100       0.30902300      -0.41132800
O        1.35927000       7.60966000       0.36656000      -1.29757100      -0.59616900      -0.60336500       0.10371800
O        7.16564000       7.43381000      29.07420000      -1.27462600      -1.34762800       0.82513900      -0.65969600
O        9.39723000       4.68907000       5.14870000      -1.29776600       1.49637300      -0.65109400       1.11358300
O        7.71767000       0.63718000      26.78750000      -1.27030200       1.73427300       1.50589100      -0.75657600
O        8.04216000       7.89278000       6.54497000      -1.32703200      -1.08526700      -0.28856100      -0.31645700
O        6.48573000       8.19973000       4.50977000      -1.33970900      -0.66989500      -0.36938400       0.87716500
O        2.54915000       3.51788000      28.89430000      -1.31514000       0.32188600      -1.43148100      -0.37013800
O        5.42673000       5.81122000       6.51625000      -1.35022900      -1.55415900       1.00121100       0.36614400
O        0.08718000       7.34730000       5.30094000      -1.31001100       1.34281700      -0.57341300       0.02698500
O        4.18924000       6.66920000       3.64114000      -1.30798700       0.19357000       0.09912900      -0.35958500
O        3.30856000       4.62025000       1.84405000      -1.38474600      -0.24829600      -0.65092500       2.21344700
O        5.31081000       2.97807000      23.93310000      -1.28177900      -0.60846500      -0.53644200      -0.78358600
O        1.15127000       6.60792000      25.21250000      -1.30506300      -0.84562000       0.03087300      -0.65656600
O        9.22844000       0.79201000       0.47199000      -1.31319200      -0.43976400      -0.56398800      -0.88314700
O        4.98769000       7.76187000      23.30720000      -1.28054400      -0.44735900       0.73093000      -0.89953600
O        6.18869000       3.28733000       1.29799000      -1.35286300      -1.14736200       0.30540400       1.39786900
O        2.63849000       6.70349000       6.25819000      -1.30856800       0.64019500       1.24524800      -2.74926500
O        6.62986000       6.12475000      24.82780000      -1.31226700      -0.48617800      -0.10275400      -0.02509400
O       10.01670000       1.33840000      22.85840000      -1.31052200      -0.70551700       0.16286200      -1.13518100
O        1.25551000       1.10730000       5.81526000      -1.30649600      -0.84444900       1.28324400       0.00610600
O        5.10419000       0.67505000      25.56500000      -1.31379800       0.82787300      -0.70725700      -1.37108300
O        4.37608000       5.30907000      29.70500000      -1.30218100       1.93949600       0.33749400       0.77029500
O        7.39216000       1.38986000      23.16130000      -1.29801000      -1.87239500       2.30094000      -0.28507400
O        6.84575000       2.89812000      28.46990000      -1.30962500      -1.13374800       2.73646500      -0.19379200
O        5.44654000       1.84666000       5.25613000      -1.33505200      -0.23180700      -0.57360000       0.32522500
O        2.26640000       8.68036000      23.14640000      -1.24984500       0.17954300      -0.42615300      -0.51266200
O        5.12245000       7.13084000      27.15680000      -1.34642000       0.54537200       0.39286000       0.01838500
H        0.19229000       2.86382000      25.69340000       0.65873000      -0.02996300       0.12332300      -0.80827700
H        0.00612000       3.55845000      27.00120000       0.69661500      -0.41684300       0.84770400       0.77255500
H        4.04103000       4.15784000      26.57980000       0.68356700      -0.16910200       0.43578500       0.07665200
H        4.98888000       3.36586000      25.60180000       0.67475300      -0.03903400       0.13792300       1.00848500
H        0.17109000       3.48029000       1.36999000       0.68522700      -0.21671900       0.18550000       0.27354900
H        9.46827000       8.42043000      23.58650000       0.64660600      -1.45898700      -0.65732300       0.50555400
H        8.59277000       4.69016000      28.36510000       0.65552800       0.76972600       1.00478100      -0.79226800
H        9.45243000       5.95623000      27.64920000       0.67493300      -0.64303500      -0.71686600       0.47336700
H        0.51442000       4.70023000      24.02600000       0.65600600      -0.63479500      -0.39671800       0.16817900
H        9.74397000       3.83187000      23.09980000       0.60367500      -0.22968100       0.47575600      -0.17279800
H        0.87929000       1.23130000      27.40460000       0.68623500      -0.35909000       0.84480900      -0.14501100
H        2.41592000       4.76674000      27.57910000       0.68241700      -0.46231400      -0.71611200       1.08582000
H        4.15156000       3.18363000       7.52612000       0.61619400       0.78832600      -0.50266300       1.24092300
H        0.24224000       8.12597000      27.35440000       0.67679500      -0.17982400      -0.66242200      -0.16964400
H        4.57591000       1.17662000      28.53740000       0.67758500       0.30344000       0.18329100       0.18441800
H        2.17344000       0.79611000      28.00100000       0.70213300       1.84708700       0.00782800       0.14141900
H        6.38146000       0.43184000       0.24637000       0.62510400      -0.81423600       0.34847900      -0.40041400
H        2.72609000       1.53516000      23.94960000       0.64893500      -0.02000900       1.41960400       0.88677400
H        2.82597000       2.08592000      25.37720000       0.67028900       0.12778000       0.05324400       0.69598700
H        7.84327000       8.61104000       3.44001000       0.68185100      -1.33419800      -0.19958300       0.30506400
H        4.22792000       2.13133000      27.25870000       0.68287300       0.26586500      -0.81700900       0.70898600
H        3.12995000       4.34057000      23.69170000       0.65512900      -0.49076800      -0.33041500       0.21267600
H        3.52541000       1.01157000       2.24764000       0.72515900       0.50251900       2.17540900       1.39506500
H        3.56491000       8.28940000       2.17827000       0.64505500       0.01598100      -0.45880500       0.35615800
H        2.11851000       5.64241000      26.38260000       0.68168200      -0.64731400       0.79230400      -0.94320700
H        4.35246000       4.61232000       6.76660000       0.66690200      -0.11124300      -1.06096600       0.11740700
H        9.33685000       1.81148000       3.50565000       0.61265900       0.10716500      -0.38562500      -0.73308800
H        9.73554000       3.18335000       3.96242000       0.61708500       0.60267800      -0.29030200      -1.16795800
H        8.86041000       8.24493000      26.96270000       0.64341100       1.05145400      -1.42829700      -0.40719900
H        9.89100000       3.59696000      30.01689000       0.63396400      -0.10954600       0.55743200       0.00488700
H        4.67539000       2.30321000       3.73057000       0.67229200      -0.57530200       0.47441700      -0.67964200
H        6.46224000       2.84246000       5.88180000       0.70306200      -0.17358100       0.08608700       0.10744400
H        6.82408000       3.72799000       7.16875000       0.57451200       0.04518000      -0.43765400       0.27243000
H        8.25343000       5.75482000       1.64705000       0.63971300       0.93496700       1.50640900       1.75458200
H        7.29442000       4.58806000       1.42765000       0.68437500       0.41479200       0.29404400      -0.58083300
H        3.44214000       0.87127000       7.64359000       0.57206000       0.09567700      -0.15542700      -0.69974100
H        2.77479000       0.95947000       6.24197000       0.70727100      -1.42377000       0.20986600      -0.78564500
H        3.78109000       3.25831000       2.68038000       0.69121600       0.71334000      -0.81152200       0.14707100
H        9.22497000       8.27762000       3.95910000       0.62815800      -0.30402700       0.18156000      -1.27159600
H        0.84994000       6.39344000       1.72034000       0.65945300       0.18287800      -0.77542800       0.46091300
H        0.66047000       6.02634000       3.18533000       0.64764700      -0.50270900       0.97932700       2.19662500
H        4.85612000       0.51718000       0.68771000       0.65129700       0.63856300       0.48207900      -0.62729600
H        2.30871000       3.72338000       6.85441000       0.67813800      -0.81284900       0.02877700       0.10179800
H        1.00738000       3.73897000       7.87106000       0.52877100       0.63522800       0.07691200      -1.51373500
H        3.03818000       5.58841000      22.77520000       0.56830700      -0.19631000      -0.11213300       0.13718000
H        2.00698000       8.29999000       0.57164000       0.67966900      -0.14328900       0.22834000       0.12038200
H        7.93804000       7.65920000      28.58530000       0.63453300       0.89685400       0.43561900      -0.58169100
H       10.07930000       4.32781000       5.80178000       0.62747400      -0.78358100       0.54189000      -1.01350600
H        7.48884000       6.89918000      29.76640000       0.64820300       0.40182700      -1.42624500       1.49489700
H        0.55091000       8.04631000       0.04340000       0.65920200       0.47400500       0.30306500       0.04517300
H        8.58608000       4.26157000       5.45301000       0.67636200      -0.61652300       0.03522200       0.17916100
H        8.39113000       1.25744000      26.36510000       0.61331700      -0.98453500      -0.82599000       0.93099400
H        6.93234000       0.79837000      26.24630000       0.67276700      -0.83106400      -0.25610200      -0.17697300
H        8.88945000       7.92694000       6.04674000       0.69883800       0.43237000       0.14808400       0.92274400
H        5.78507000       7.56127000       4.25100000       0.67841700       0.23802000       0.21994100      -0.17198500
H        2.96741000       2.65252000      28.53430000       0.64847400      -0.37270000       1.20289700       0.72919900
H        8.07596000       8.12619000       7.47252000       0.59272900       0.61802700       0.25213400       0.05068800
H        2.01821000       3.24190000      29.66070000       0.65650600      -0.22920300       0.09504400      -0.13721500
H        5.51830000       6.31917000       7.34753000       0.64855800       0.60404800      -0.56965900      -0.59819500
H        6.14181000       5.20859000       6.31228000       0.69516500       1.08896200      -0.28305100       0.07689500
H        1.07563000       7.22783000       5.46309000       0.64614500      -1.23233400       0.51383300      -0.02318600
H        3.93049000       5.88126000       3.08350000       0.66392700       0.17179700       0.41429600       0.76734000
H        9.88383000       6.44441000       5.43423000       0.66388300      -0.20193100      -0.26179300      -0.40129900
H        3.96866000       6.55303000       4.57680000       0.63042700      -0.33745600      -0.56099000      -0.47060800
H        5.07656000       4.65370000      29.97869000       0.63651100      -0.94081400       0.71864300      -0.39705300
H        2.41507000       4.91622000       2.03389000       0.69091900      -1.00529300       0.18024900       0.23045200
H        3.57185000       5.09758000       1.07472000       0.69498700       1.02073900       0.74896000      -1.74328300
H        5.16024000       3.69180000      23.28900000       0.60560100       0.02976800       0.04022500       0.50698000
H        0.30073000       6.88255000      25.64370000       0.67708100       0.36013000      -0.23028200       0.25394900
H        9.32062000       0.50889000       1.37610000       0.65895200      -0.12753000      -0.25912600       0.87678800
H        1.36208000       7.41572000      24.72850000       0.61707400       0.54144500      -0.14187800      -0.04997700
H        4.37159000       2.57522000      24.09600000       0.67812900       1.05835200       0.50779500      -0.12766100
H        9.57977000       1.70689000       0.46050000       0.71224300       0.33749900       0.05140900       0.08069600
H        5.12867000       7.92825000      22.34680000       0.53377100       0.26210700      -0.47061700       0.68579200
H        5.34172000       6.89619000      23.58670000       0.71305400       0.33149400      -0.21434100       0.17003300
H        6.79499000       7.94514000       5.43033000       0.66630900      -0.06682300       0.25372100      -1.06685100
H        2.32948000       6.18124000       6.94809000       0.63713300      -0.62749200      -1.08357400       2.20525600
H        7.30641000       6.72808000      24.52930000       0.63904000       0.71520400       0.23420300      -0.12416400
H        3.07395000       7.52349000       6.52991000       0.66938800      -0.09587300       0.07183900       0.51291100
H        6.50005000       2.84791000       0.53474000       0.71172400       0.69902300      -0.72312400      -1.72173200
H        6.40972000       6.45504000      25.71750000       0.67747400      -0.42770700      -0.18725000       0.10051700
H        9.03695000       1.54409000      22.64600000       0.66557000       1.31604400      -0.14388500       1.14702100
H        0.32670000       2.13939000      23.18620000       0.65091300      -0.37151500      -0.17537900       0.20189600
H        8.55941000       7.76631000      22.61160000       0.57232700      -0.31716800      -0.35843800      -0.20632700
H        0.87826000       1.42651000       4.96190000       0.67448800       0.41028800      -0.32501100       0.12002900
H        5.28799000       0.23221000      24.68980000       0.62547800      -0.46444700       0.40428700       1.18394800
H        1.09220000       1.90554000       6.38401000       0.63200600       0.11815600      -0.52786300      -0.48811200
H        4.99200000       8.68958000      26.16850000       0.68194300      -0.29100500      -0.03088700       0.15435000
H        3.62984000       4.79064000      29.41420000       0.67584000      -0.53762700      -1.00245800      -0.62693700
H        5.46672000       2.66996000       1.59842000       0.66150600       0.62415800       0.87140600       0.19206500
H        7.07550000       0.51798000      23.37980000       0.63576600       0.09528200      -0.66420600       0.26654200
H        6.58196000       2.03276000      23.38450000       0.65800700       1.45442700      -1.12544200      -0.20123900
H        7.21511000       2.09730000      28.15100000       0.67664600       0.31666000      -1.20263700      -0.87409500
H        6.32017000       3.36546000      27.74300000       0.63132900       0.90171400      -1.30252600       1.16450000
H        4.73260000       1.53362000       5.90586000       0.67195600       0.92153500       0.20798800      -0.92983100
H        5.85708000       1.01669000       4.89241000       0.67112600      -0.19056200       0.07161100       0.27787900