 vasp.6.4.3 19Mar24 (build Sep  4 2024 12:23:58) complex                         
 executed on              LinuxNV date 2025.10.06  12:31:44
 running    4 mpi-ranks, with    1 threads/rank, on    1 nodes
 distrk:  each k-point on    2 cores,    2 groups
 distr:  one band on NCORE=   1 cores,    2 groups
 OpenACC runtime initialized ...    4 GPUs detected


--------------------------------------------------------------------------------------------------------


 INCAR:
   ENCUT = 800.000000
   SIGMA = 0.100000
   EDIFF = 1.00e-07
   ALGO = A
   METAGGA = R2SCAN
   PREC = Accurate
   IBRION = -1
   ICHARG = 1
   IDIPOL = 3
   ISMEAR = 0
   ISTART = 1
   KPAR = 2
   NELM = 300
   NPAR = 2
   NCORE = 1
   DIPOL = 0.5 0.5 0.5
   LASPH = .TRUE.
   LDIPOL = .TRUE.
   LVHAR = .TRUE.
   LMIXTAU = .TRUE.
   LVACPOTAV = .TRUE.
   LREAL = Auto

 POTCAR:    PAW_PBE Cu 22Jun2005                  
 POTCAR:    PAW_PBE O_h 06Feb2004                 
 POTCAR:    PAW_PBE H_h 06Feb2004                 
 POTCAR:    PAW_PBE Cu 22Jun2005                  
   VRHFIN =Cu: d10 p1                                                                               
   LEXCH  = PE                                                                                      
   EATOM  =  1390.9808 eV,  102.2342 Ry                                                             
                                                                                                    
   TITEL  = PAW_PBE Cu 22Jun2005                                                                    
   LULTRA =        F    use ultrasoft PP ?                                                          
   IUNSCR =        1    unscreen: 0-lin 1-nonlin 2-no                                               
   RPACOR =    2.000    partial core radius                                                         
   POMASS =   63.546; ZVAL   =   11.000    mass and valenz                                          
   RCORE  =    2.300    outmost cutoff radius                                                       
   RWIGS  =    2.200; RWIGS  =    1.164    wigner-seitz radius (au A)                               
   ENMAX  =  295.446; ENMIN  =  221.585 eV                                                          
   ICORE  =        3    local potential                                                             
   LCOR   =        T    correct aug charges                                                         
   LPAW   =        T    paw PP                                                                      
   EAUG   =  586.980                                                                                
   DEXC   =    0.000                                                                                
   RMAX   =    2.344    core radius for proj-oper                                                   
   RAUG   =    1.300    factor for augmentation sphere                                              
   RDEP   =    2.302    radius for radial grids                                                     
   RDEPT  =    1.771    core radius for aug-charge                                                  
                                                                                                    
   Atomic configuration                                                                             
    9 entries                                                                                       
     n  l   j            E        occ.                                                              
     1  0  0.50     -8850.2468   2.0000                                                             
     2  0  0.50     -1062.3498   2.0000                                                             
     2  1  1.50      -916.8226   6.0000                                                             
     3  0  0.50      -114.6929   2.0000                                                             
     3  1  1.50       -72.1325   6.0000                                                             
     3  2  2.50        -5.0394  10.0000                                                             
     4  0  0.50        -4.6097   1.0000                                                             
     4  1  0.50        -4.0817   0.0000                                                             
     4  3  2.50        -1.3606   0.0000                                                             
   Description                                                                                      
     l       E           TYP  RCUT    TYP  RCUT                                                     
     2     -5.0393973     23  2.200                                                                 
     2     10.8846608     23  2.200                                                                 
     0     -4.6097109     23  2.200                                                                 
     0      8.2520465     23  2.200                                                                 
     1     -2.7211652     23  2.200                                                                 
     1     21.7055443     23  2.200                                                                 
     3      2.7211652     23  2.300                                                                 
  local pseudopotential read in
  partial core-charges read in
  partial kinetic energy density read in
  atomic valenz-charges read in
  non local Contribution for L=            2  read in
    real space projection operators read in
  non local Contribution for L=            2  read in
    real space projection operators read in
  non local Contribution for L=            0  read in
    real space projection operators read in
  non local Contribution for L=            0  read in
    real space projection operators read in
  non local Contribution for L=            1  read in
    real space projection operators read in
  non local Contribution for L=            1  read in
    real space projection operators read in
    PAW grid and wavefunctions read in
 
   number of l-projection  operators is LMAX  =            6
   number of lm-projection operators is LMMAX =           18
 
 POTCAR:    PAW_PBE O_h 06Feb2004                 
   VRHFIN =O: s2p4                                                                                  
   LEXCH  = PE                                                                                      
   EATOM  =   432.3788 eV,   31.7789 Ry                                                             
                                                                                                    
   TITEL  = PAW_PBE O_h 06Feb2004                                                                   
   LULTRA =        F    use ultrasoft PP ?                                                          
   IUNSCR =        1    unscreen: 0-lin 1-nonlin 2-no                                               
   RPACOR =    0.800    partial core radius                                                         
   POMASS =   16.000; ZVAL   =    6.000    mass and valenz                                          
   RCORE  =    1.100    outmost cutoff radius                                                       
   RWIGS  =    1.400; RWIGS  =    0.741    wigner-seitz radius (au A)                               
   ENMAX  =  700.000; ENMIN  =  500.000 eV                                                          
   ICORE  =        2    local potential                                                             
   LCOR   =        T    correct aug charges                                                         
   LPAW   =        T    paw PP                                                                      
   EAUG   =  888.804                                                                                
   DEXC   =    0.000                                                                                
   RMAX   =    1.128    core radius for proj-oper                                                   
   RAUG   =    1.300    factor for augmentation sphere                                              
   RDEP   =    1.125    radius for radial grids                                                     
   RDEPT  =    1.088    core radius for aug-charge                                                  
                                                                                                    
   Atomic configuration                                                                             
    4 entries                                                                                       
     n  l   j            E        occ.                                                              
     1  0  0.50      -514.6923   2.0000                                                             
     2  0  0.50       -23.9615   2.0000                                                             
     2  1  0.50        -9.0305   4.0000                                                             
     3  2  1.50        -9.5241   0.0000                                                             
   Description                                                                                      
     l       E           TYP  RCUT    TYP  RCUT                                                     
     0    -23.9615319     23  1.100                                                                 
     0    -25.3221145     23  1.100                                                                 
     1     -9.0304911     23  1.100                                                                 
     1     -5.4802209     23  1.100                                                                 
     2     -9.5240782      7  1.100                                                                 
  local pseudopotential read in
  partial core-charges read in
  partial kinetic energy density read in
  atomic valenz-charges read in
  non local Contribution for L=            0  read in
    real space projection operators read in
  non local Contribution for L=            0  read in
    real space projection operators read in
  non local Contribution for L=            1  read in
    real space projection operators read in
  non local Contribution for L=            1  read in
    real space projection operators read in
    PAW grid and wavefunctions read in
 
   number of l-projection  operators is LMAX  =            4
   number of lm-projection operators is LMMAX =            8
 
 POTCAR:    PAW_PBE H_h 06Feb2004                 
   VRHFIN =H: ultrasoft test                                                                        
   LEXCH  = PE                                                                                      
   EATOM  =    12.4884 eV,    0.9179 Ry                                                             
                                                                                                    
   TITEL  = PAW_PBE H_h 06Feb2004                                                                   
   LULTRA =        F    use ultrasoft PP ?                                                          
   IUNSCR =        0    unscreen: 0-lin 1-nonlin 2-no                                               
   RPACOR =    0.000    partial core radius                                                         
   POMASS =    1.000; ZVAL   =    1.000    mass and valenz                                          
   RCORE  =    0.800    outmost cutoff radius                                                       
   RWIGS  =    0.700; RWIGS  =    0.370    wigner-seitz radius (au A)                               
   ENMAX  =  700.000; ENMIN  =  350.000 eV                                                          
   RCLOC  =    0.701    cutoff for local pot                                                        
   LCOR   =        T    correct aug charges                                                         
   LPAW   =        T    paw PP                                                                      
   EAUG   = 1000.000                                                                                
   RMAX   =    0.819    core radius for proj-oper                                                   
   RAUG   =    1.000    factor for augmentation sphere                                              
   RDEP   =    0.817    radius for radial grids                                                     
   RDEPT  =    0.817    core radius for aug-charge                                                  
                                                                                                    
   Atomic configuration                                                                             
    2 entries                                                                                       
     n  l   j            E        occ.                                                              
     1  0  0.50        -6.4927   1.0000                                                             
     2  1  0.50        -3.4015   0.0000                                                             
   Description                                                                                      
     l       E           TYP  RCUT    TYP  RCUT                                                     
     0     -6.4927493     23  0.800                                                                 
     0      6.8029130     23  0.800                                                                 
     1     -6.8029130     23  0.800                                                                 
  local pseudopotential read in
  atomic valenz-charges read in
  non local Contribution for L=            0  read in
    real space projection operators read in
  non local Contribution for L=            0  read in
    real space projection operators read in
  non local Contribution for L=            1  read in
    real space projection operators read in
    PAW grid and wavefunctions read in
 
   number of l-projection  operators is LMAX  =            3
   number of lm-projection operators is LMMAX =            5
 
 Optimization of the real space projectors (new method)

 maximal supplied QI-value         = 16.25
 optimisation between [QCUT,QGAM] = [ 14.46, 28.93] = [ 58.58,234.33] Ry 
 Optimized for a Real-space Cutoff    1.35 Angstroem

   l    n(q)    QCUT    max X(q) W(low)/X(q) W(high)/X(q)  e(spline) 
   2     11    14.464     4.610    0.56E-04    0.10E-03    0.52E-06
   2     11    14.464     8.522    0.88E-04    0.16E-03    0.84E-06
   0     12    14.464    51.609    0.44E-04    0.29E-04    0.63E-06
   0     12    14.464    27.747    0.38E-04    0.27E-04    0.60E-06
   1     11    14.464    20.408    0.64E-04    0.66E-04    0.14E-06
   1     11    14.464    13.425    0.56E-04    0.59E-04    0.13E-06
 Optimization of the real space projectors (new method)

 maximal supplied QI-value         = 34.20
 optimisation between [QCUT,QGAM] = [ 14.37, 28.73] = [ 57.79,231.16] Ry 
 Optimized for a Real-space Cutoff    0.98 Angstroem

   l    n(q)    QCUT    max X(q) W(low)/X(q) W(high)/X(q)  e(spline) 
   0      8    14.366   280.207    0.54E-04    0.14E-03    0.22E-06
   0      8    14.366   228.978    0.55E-04    0.14E-03    0.22E-06
   1      8    14.366    86.127    0.24E-03    0.25E-03    0.26E-06
   1      8    14.366    65.368    0.24E-03    0.24E-03    0.26E-06
 Optimization of the real space projectors (new method)

 maximal supplied QI-value         = 47.24
 optimisation between [QCUT,QGAM] = [ 14.17, 28.82] = [ 56.25,232.56] Ry 
 Optimized for a Real-space Cutoff    0.95 Angstroem

   l    n(q)    QCUT    max X(q) W(low)/X(q) W(high)/X(q)  e(spline) 
   0      8    14.173    34.671    0.25E-03    0.45E-03    0.25E-06
   0      8    14.173    17.046    0.24E-03    0.43E-03    0.25E-06
   1      8    14.173     1.978    0.58E-04    0.22E-03    0.31E-06
 -----------------------------------------------------------------------------
|                                                                             |
|               ----> ADVICE to this user running VASP <----                  |
|                                                                             |
|     You enforced a specific xc type in the INCAR file but a different       |
|     type was found in the POTCAR file.                                      |
|     I HOPE YOU KNOW WHAT YOU ARE DOING!                                     |
|                                                                             |
 -----------------------------------------------------------------------------

  PAW_PBE Cu 22Jun2005                  :
 energy of atom  1       EATOM=-1390.9808
 kinetic energy error for atom=    0.0007 (will be added to EATOM!!)
  PAW_PBE O_h 06Feb2004                 :
 energy of atom  2       EATOM= -432.3788
 kinetic energy error for atom=    0.0500 (will be added to EATOM!!)
  PAW_PBE H_h 06Feb2004                 :
 energy of atom  3       EATOM=  -12.4884
 kinetic energy error for atom=    0.0035 (will be added to EATOM!!)
 
 
 POSCAR: Cu O  H
  positions in cartesian coordinates
  No initial velocities read in


 exchange-correlation table for R2SCAN
   RHO(1)=    0.500       N(1)  =     2000
   RHO(2)=  100.500       N(2)  =     4000
 


--------------------------------------------------------------------------------------------------------


 ion  position               nearest neighbor table
   1  0.692  0.119  0.381-   4 2.33   2 2.42  16 2.43  15 2.44  32 2.50   8 2.56   5 2.59  18 2.75
                            17 2.76
   2  0.928  0.125  0.389-  19 2.41   1 2.42  29 2.43  18 2.44  16 2.46  13 2.53   5 2.54   3 2.59
                             6 2.62
   3  0.183  0.126  0.389-  19 2.39  20 2.44  30 2.45  14 2.47  13 2.50   6 2.53   7 2.58   2 2.59

   4  0.465  0.120  0.389-  17 2.33   1 2.33  14 2.43  15 2.45  31 2.45   8 2.51  20 2.63   7 2.68

   5  0.810  0.380  0.386-   8 2.38  18 2.46   9 2.53   2 2.54  21 2.55  12 2.56   6 2.57  22 2.58
                             1 2.59
   6  0.063  0.378  0.386-  10 2.51  23 2.51  22 2.53   3 2.53  19 2.54   5 2.57   7 2.59   2 2.62
                             9 2.63
   7  0.318  0.374  0.386-  24 2.48  11 2.55  23 2.55  20 2.56   3 2.58   6 2.59   8 2.61   4 2.68
                            10 2.70
   8  0.576  0.375  0.389-   5 2.38  21 2.41  17 2.47   4 2.51  24 2.53   1 2.56  12 2.56  11 2.61
                             7 2.61
   9  0.928  0.634  0.387-  26 2.39  12 2.45  25 2.47  16 2.47  22 2.50  10 2.51   5 2.53  13 2.54
                             6 2.63
  10  0.176  0.634  0.385-  13 2.48  26 2.50   9 2.51   6 2.51  23 2.57  27 2.62  11 2.68   7 2.70
                            14 2.76
  11  0.440  0.628  0.388-  28 2.45  24 2.47  12 2.53  27 2.54   7 2.55  15 2.60   8 2.61  14 2.66
                            10 2.68
  12  0.688  0.635  0.383-  15 2.40   9 2.45  16 2.50  11 2.53   5 2.56   8 2.56  28 2.58  25 2.62
                            21 2.69
  13  0.058  0.881  0.384-  10 2.48  16 2.50   3 2.50   2 2.53   9 2.54  26 2.58  30 2.60  29 2.66
                            14 2.69
  14  0.323  0.898  0.384-   4 2.43  31 2.45   3 2.47  30 2.55  15 2.58  11 2.66  13 2.69  10 2.76
                            27 2.77
  15  0.577  0.876  0.382-  16 2.38  12 2.40   1 2.44   4 2.45  32 2.48  14 2.58  11 2.60  28 2.62
                            31 2.72
  16  0.812  0.881  0.384-  15 2.38   1 2.43   2 2.46   9 2.47  32 2.48  13 2.50  12 2.50  29 2.62
                            25 2.68
  17  0.565  0.205  0.433-   4 2.33  32 2.42   8 2.47  33 2.48  18 2.49  37 2.50  40 2.53  24 2.60
                            20 2.61  21 2.61  31 2.62   1 2.76
  18  0.810  0.229  0.431-  21 2.41   2 2.44   5 2.46  22 2.46  37 2.49  17 2.49  19 2.50  38 2.51
                            29 2.60  32 2.61  34 2.65   1 2.75
  19  0.056  0.204  0.431-   3 2.39   2 2.41  29 2.45  18 2.50   6 2.54  38 2.54  35 2.54  20 2.56
                            22 2.58  39 2.61  30 2.62  23 2.63
  20  0.308  0.205  0.433-   3 2.44  36 2.49  39 2.49  30 2.53  40 2.53   7 2.56  24 2.56  19 2.56
                            23 2.57  31 2.60  17 2.61   4 2.63
  21  0.689  0.465  0.433-   8 2.41  18 2.41  25 2.43  41 2.48  44 2.50  28 2.51  22 2.54  37 2.54
                             5 2.55  24 2.60  17 2.61  12 2.69
  22  0.940  0.466  0.432-  26 2.39  18 2.46  25 2.49   9 2.50  42 2.50  23 2.51  41 2.52   6 2.53
                            21 2.54  38 2.57   5 2.58  19 2.58
  23  0.187  0.462  0.432-  27 2.49  24 2.49  22 2.51   6 2.51  42 2.53  43 2.53   7 2.55  39 2.56
                            20 2.57  10 2.57  26 2.59  19 2.63
  24  0.433  0.459  0.432-  11 2.47   7 2.48  23 2.49  43 2.49  40 2.52   8 2.53  44 2.54  27 2.55
                            20 2.56  21 2.60  17 2.60  28 2.63
  25  0.808  0.705  0.433-  21 2.43  28 2.43  26 2.43   9 2.47  48 2.49  41 2.49  22 2.49  45 2.53
                            29 2.60  32 2.62  12 2.62  16 2.68
  26  0.048  0.708  0.431-   9 2.39  22 2.39  25 2.43  10 2.50  45 2.51  29 2.56  42 2.58  13 2.58
                            23 2.59  30 2.59  27 2.62  46 2.65
  27  0.306  0.709  0.433-  30 2.41  46 2.44  31 2.46  43 2.48  23 2.49  47 2.51  11 2.54  24 2.55
                            10 2.62  26 2.62  28 2.66  14 2.77
  28  0.569  0.714  0.431-  25 2.43  11 2.45  31 2.46  21 2.51  48 2.51  32 2.54  47 2.58  12 2.58
                            44 2.59  15 2.62  24 2.63  27 2.66
  29  0.930  0.966  0.433-  34 2.43   2 2.43  19 2.45  32 2.47  35 2.52  45 2.53  26 2.56  25 2.60
                            18 2.60  16 2.62  13 2.66  30 2.67
  30  0.192  0.951  0.431-  27 2.41   3 2.45  31 2.45  46 2.51  20 2.53  36 2.54  14 2.55  26 2.59
                            35 2.59  13 2.60  19 2.62  29 2.67
  31  0.434  0.948  0.431-  14 2.45  30 2.45   4 2.45  28 2.46  27 2.46  47 2.49  36 2.56  32 2.58
                            33 2.59  20 2.60  17 2.62  15 2.72
  32  0.687  0.968  0.428-  17 2.42  29 2.47  16 2.48  15 2.48   1 2.50  28 2.54  31 2.58  18 2.61
                            25 2.62  33 2.65  34 2.65  48 2.72
  33  0.562  0.042  0.478-  17 2.48  47 2.54  36 2.54  40 2.54  48 2.54  52 2.54  63 2.54  37 2.54
                            49 2.54  34 2.54  31 2.59  32 2.65
  34  0.813  0.042  0.478-  29 2.43  35 2.54  45 2.54  38 2.54  48 2.54  50 2.54  64 2.54  37 2.54
                            49 2.54  33 2.54  32 2.65  18 2.65
  35  0.062  0.042  0.478-  29 2.52  34 2.54  45 2.54  46 2.54  61 2.54  38 2.54  50 2.54  39 2.54
                            51 2.54  36 2.54  19 2.54  30 2.59
  36  0.313  0.042  0.478-  20 2.49  33 2.54  47 2.54  46 2.54  62 2.54  40 2.54  39 2.54  52 2.54
                            51 2.54  35 2.54  30 2.54  31 2.56
  37  0.688  0.292  0.478-  18 2.49  17 2.50  38 2.54  40 2.54  41 2.54  44 2.54  53 2.54  56 2.54
                            33 2.54  34 2.54  49 2.54  21 2.54
  38  0.937  0.292  0.478-  18 2.51  41 2.54  42 2.54  37 2.54  53 2.54  34 2.54  54 2.54  39 2.54
                            35 2.54  50 2.54  19 2.54  22 2.57
  39  0.187  0.292  0.478-  20 2.49  42 2.54  43 2.54  54 2.54  55 2.54  38 2.54  35 2.54  36 2.54
                            51 2.54  40 2.54  23 2.56  19 2.61
  40  0.438  0.292  0.478-  24 2.52  17 2.53  20 2.53  44 2.54  37 2.54  43 2.54  56 2.54  33 2.54
                            55 2.54  36 2.54  52 2.54  39 2.54
  41  0.813  0.542  0.478-  21 2.48  25 2.49  22 2.52  38 2.54  42 2.54  37 2.54  45 2.54  57 2.54
                            48 2.54  53 2.54  60 2.54  44 2.54
  42  0.062  0.542  0.478-  22 2.50  23 2.53  41 2.54  38 2.54  39 2.54  45 2.54  57 2.54  46 2.54
                            54 2.54  58 2.54  43 2.54  26 2.58
  43  0.313  0.542  0.478-  27 2.48  24 2.49  23 2.53  44 2.54  40 2.54  39 2.54  47 2.54  46 2.54
                            55 2.54  59 2.54  58 2.54  42 2.54
  44  0.562  0.542  0.478-  21 2.50  40 2.54  43 2.54  37 2.54  47 2.54  59 2.54  48 2.54  56 2.54
                            60 2.54  41 2.54  24 2.54  28 2.59
  45  0.937  0.792  0.478-  26 2.51  29 2.53  25 2.53  34 2.54  48 2.54  35 2.54  41 2.54  64 2.54
                            46 2.54  42 2.54  61 2.54  57 2.54
  46  0.187  0.792  0.478-  27 2.44  30 2.51  35 2.54  36 2.54  45 2.54  42 2.54  43 2.54  58 2.54
                            61 2.54  62 2.54  47 2.54  26 2.65
  47  0.438  0.792  0.478-  31 2.49  27 2.51  33 2.54  48 2.54  44 2.54  36 2.54  63 2.54  43 2.54
                            59 2.54  62 2.54  46 2.54  28 2.58
  48  0.688  0.792  0.478-  25 2.49  28 2.51  45 2.54  47 2.54  33 2.54  34 2.54  41 2.54  44 2.54
                            60 2.54  63 2.54  64 2.54  32 2.72
  49  0.688  0.125  0.524-  50 2.54  52 2.54  53 2.54  56 2.54  63 2.54  64 2.54  37 2.54  34 2.54
                            33 2.54  65 2.55  80 2.57  66 2.59
  50  0.937  0.125  0.524-  66 2.51  53 2.54  54 2.54  64 2.54  49 2.54  61 2.54  34 2.54  51 2.54
                            35 2.54  38 2.54  67 2.55  77 2.57
  51  0.187  0.125  0.524-  78 2.51  67 2.53  54 2.54  55 2.54  61 2.54  62 2.54  50 2.54  39 2.54
                            35 2.54  36 2.54  52 2.54  68 2.57
  52  0.438  0.125  0.524-  68 2.46  56 2.54  63 2.54  49 2.54  55 2.54  62 2.54  33 2.54  40 2.54
                            36 2.54  51 2.54  79 2.55  65 2.69
  53  0.813  0.375  0.524-  70 2.46  69 2.49  50 2.54  54 2.54  49 2.54  38 2.54  57 2.54  37 2.54
                            60 2.54  41 2.54  56 2.54  66 2.56
  54  0.062  0.375  0.524-  70 2.43  67 2.52  53 2.54  50 2.54  51 2.54  38 2.54  39 2.54  57 2.54
                            58 2.54  42 2.54  55 2.54  71 2.58
  55  0.313  0.375  0.524-  56 2.54  52 2.54  51 2.54  40 2.54  39 2.54  59 2.54  58 2.54  43 2.54
                            54 2.54  72 2.54  68 2.55  71 2.72
  56  0.562  0.375  0.524-  69 2.46  65 2.53  52 2.54  55 2.54  49 2.54  40 2.54  59 2.54  37 2.54
                            60 2.54  44 2.54  53 2.54  72 2.63
  57  0.937  0.625  0.524-  73 2.48  74 2.52  70 2.53  60 2.54  53 2.54  64 2.54  41 2.54  58 2.54
                            54 2.54  61 2.54  42 2.54  45 2.54
  58  0.187  0.625  0.524-  57 2.54  54 2.54  55 2.54  61 2.54  62 2.54  46 2.54  42 2.54  43 2.54
                            59 2.54  71 2.58  75 2.62  74 2.68
  59  0.438  0.625  0.524-  72 2.48  60 2.54  56 2.54  63 2.54  44 2.54  55 2.54  62 2.54  47 2.54
                            43 2.54  58 2.54  76 2.60  75 2.65
  60  0.688  0.625  0.524-  69 2.45  73 2.53  57 2.54  59 2.54  53 2.54  56 2.54  63 2.54  64 2.54
                            48 2.54  44 2.54  41 2.54  76 2.61
  61  0.062  0.875  0.524-  78 2.46  64 2.54  50 2.54  51 2.54  35 2.54  57 2.54  45 2.54  58 2.54
                            46 2.54  62 2.54  74 2.61  77 2.65
  62  0.313  0.875  0.524-  78 2.47  63 2.54  52 2.54  51 2.54  36 2.54  59 2.54  58 2.54  47 2.54
                            46 2.54  61 2.54  75 2.57  79 2.64
  63  0.562  0.875  0.524-  79 2.53  52 2.54  62 2.54  59 2.54  49 2.54  47 2.54  33 2.54  60 2.54
                            48 2.54  64 2.54  80 2.54  76 2.62
  64  0.813  0.875  0.524-  73 2.44  80 2.49  61 2.54  50 2.54  57 2.54  49 2.54  45 2.54  34 2.54
                            60 2.54  48 2.54  63 2.54  77 2.60
  65  0.577  0.220  0.571-  69 2.39  66 2.47  88 2.51  56 2.53  85 2.53  49 2.55  81 2.55  68 2.58
                            79 2.61  80 2.64  72 2.68  52 2.69
  66  0.820  0.207  0.570-  77 2.40  82 2.42  70 2.44  65 2.47  67 2.48  50 2.51  85 2.54  53 2.56
                            86 2.58  80 2.59  49 2.59  69 2.64
  67  0.065  0.211  0.570-  86 2.43  70 2.43  66 2.48  83 2.49  71 2.51  54 2.52  87 2.52  51 2.53
                            77 2.55  50 2.55  78 2.58  68 2.62
  68  0.324  0.203  0.569-  84 2.43  52 2.46  79 2.46  87 2.51  55 2.55  51 2.57  65 2.58  72 2.60
                            78 2.60  67 2.62  88 2.68  71 2.78
  69  0.685  0.462  0.568-  65 2.39  60 2.45  56 2.46  76 2.49  53 2.49  85 2.50  70 2.59  72 2.60
                            73 2.61  66 2.64  92 2.65  89 2.65
  70  0.940  0.448  0.568-  71 2.38  67 2.43  54 2.43  66 2.44  53 2.46  86 2.47  57 2.53  74 2.53
                            69 2.59  89 2.62  73 2.67  90 2.72
  71  0.173  0.468  0.572-  70 2.38  87 2.45  74 2.46  90 2.47  67 2.51  58 2.58  54 2.58  72 2.59
                            75 2.59  91 2.60  55 2.72  68 2.78
  72  0.428  0.473  0.570-  76 2.46  75 2.47  59 2.48  55 2.54  91 2.58  71 2.59  68 2.60  92 2.60
                            69 2.60  56 2.63  88 2.64  65 2.68
  73  0.817  0.717  0.568-  74 2.33  80 2.42  64 2.44  77 2.48  57 2.48  60 2.53  89 2.54  96 2.58
                            76 2.60  69 2.61  93 2.62  70 2.67
  74  0.047  0.708  0.572-  73 2.33  71 2.46  93 2.49  90 2.50  57 2.52  70 2.53  77 2.55  78 2.58
                            61 2.61  75 2.66  58 2.68  94 2.68
  75  0.310  0.718  0.572-  78 2.42  72 2.47  76 2.55  95 2.55  62 2.57  94 2.57  79 2.57  71 2.59
                            91 2.61  58 2.62  59 2.65  74 2.66
  76  0.561  0.707  0.572-  92 2.43  72 2.46  95 2.48  69 2.49  79 2.52  80 2.53  75 2.55  96 2.56
                            59 2.60  73 2.60  60 2.61  63 2.62
  77  0.932  0.965  0.572-  82 2.40  66 2.40  80 2.43  93 2.43  83 2.47  73 2.48  74 2.55  67 2.55
                            50 2.57  78 2.59  64 2.60  61 2.65
  78  0.186  0.953  0.568-  75 2.42  61 2.46  62 2.47  84 2.48  51 2.51  83 2.57  74 2.58  67 2.58
                            77 2.59  68 2.60  94 2.66  79 2.66
  79  0.448  0.963  0.571-  81 2.41  68 2.46  80 2.48  84 2.50  76 2.52  63 2.53  95 2.54  52 2.55
                            75 2.57  65 2.61  62 2.64  78 2.66
  80  0.693  0.951  0.570-  73 2.42  77 2.43  79 2.48  64 2.49  81 2.50  76 2.53  82 2.54  63 2.54
                            96 2.56  49 2.57  66 2.59  65 2.64
  81  0.569  0.036  0.615-  79 2.41  95 2.45  80 2.50  82 2.50  96 2.53  65 2.55  88 2.58  84 2.69

  82  0.815  0.052  0.615-  77 2.40  66 2.42  93 2.45  81 2.50  83 2.53  80 2.54  85 2.58  96 2.61
                            86 2.62
  83  0.064  0.048  0.615-  84 2.43  93 2.45  77 2.47  86 2.47  67 2.49  94 2.51  82 2.53  87 2.55
                            78 2.57
  84  0.304  0.043  0.613-  68 2.43  83 2.43  87 2.45  94 2.47  78 2.48  79 2.50  95 2.60  81 2.69
                            88 2.73
  85  0.705  0.318  0.616-  89 2.38  69 2.50  88 2.53  65 2.53  92 2.54  66 2.54  86 2.57  82 2.58

  86  0.958  0.301  0.615-  67 2.43  87 2.43  90 2.45  70 2.47  83 2.47  85 2.57  66 2.58  82 2.62
                            89 2.64
  87  0.198  0.294  0.614-  86 2.43  71 2.45  84 2.45  91 2.47  68 2.51  67 2.52  83 2.55  88 2.63
                            90 2.66
  88  0.457  0.299  0.618-  92 2.48  65 2.51  85 2.53  81 2.58  91 2.62  87 2.63  72 2.64  68 2.68
                            84 2.73
  89  0.819  0.555  0.615-  85 2.38  96 2.40  90 2.47  73 2.54  93 2.55  92 2.61  70 2.62  86 2.64
                            69 2.65
  90  0.062  0.552  0.618-  86 2.45  89 2.47  71 2.47  91 2.50  74 2.50  94 2.51  93 2.61  87 2.66
                            70 2.72
  91  0.308  0.543  0.619-  87 2.47  90 2.50  94 2.58  92 2.58  72 2.58  71 2.60  75 2.61  88 2.62
                            95 2.63
  92  0.562  0.554  0.617-  76 2.43  95 2.44  96 2.47  88 2.48  85 2.54  91 2.58  72 2.60  89 2.61
                            69 2.65
  93  0.937  0.811  0.617-  77 2.43  96 2.44  83 2.45  82 2.45  74 2.49  94 2.52  89 2.55  90 2.61
                            73 2.62
  94  0.185  0.800  0.619-  84 2.47  90 2.51  83 2.51  93 2.52  75 2.57  91 2.58  95 2.64  78 2.66
                            74 2.68
  95  0.445  0.797  0.617-  92 2.44  81 2.45  76 2.48  79 2.54  96 2.55  75 2.55  84 2.60  91 2.63
                            94 2.64
  96  0.697  0.789  0.617-  89 2.40  93 2.44  92 2.47  81 2.53  95 2.55  76 2.56  80 2.56  73 2.58
                            82 2.61
  97  0.023  0.308  0.758- 147 0.95 148 0.96
  98  0.461  0.389  0.756- 149 0.98 150 0.99
  99  0.851  0.895  0.690- 230 0.97 152 1.01
 100  0.927  0.568  0.786- 153 0.99 154 0.99
 101  0.991  0.447  0.700- 156 0.96 155 0.99
 102  0.277  0.612  0.765- 171 0.95 158 0.95
 103  0.951  0.862  0.765- 160 1.01 175 1.03
 104  0.126  0.059  0.786- 162 0.94 157 0.96
 105  0.548  0.108  0.168- 163 0.99 188 1.00
 106  0.280  0.274  0.710- 165 0.96 164 1.03
 107  0.386  0.157  0.785- 161 0.97 167 1.02
 108  0.328  0.033  0.203- 169 0.93 170 0.96
 109  0.386  0.420  0.316- 159 0.94 172 1.02
 110  0.987  0.283  0.239- 173 0.97 174 1.00
 111  0.026  0.350  0.847- 176 0.96 151 0.96
 112  0.417  0.270  0.229- 177 0.99 184 1.01
 113  0.697  0.406  0.305- 179 0.96 178 1.01
 114  0.787  0.588  0.188- 180 0.92 181 0.99
 115  0.354  0.080  0.314- 183 0.96 182 0.98
 116  0.862  0.979  0.236- 166 0.95 185 1.00
 117  0.081  0.640  0.219- 187 0.92 186 1.01
 118  0.126  0.421  0.319- 190 1.01 189 1.03
 119  0.346  0.593  0.689- 168 0.96 191 0.97
 120  0.134  0.867  0.174- 192 0.97 196 0.97
 121  0.707  0.846  0.812- 195 0.93 193 0.94
 122  0.927  0.534  0.280- 197 0.97 194 1.01
 123  0.761  0.073  0.761- 199 0.97 198 1.01
 124  0.793  0.899  0.311- 203 0.96 200 0.98
 125  0.640  0.934  0.266- 201 0.98 222 1.00
 126  0.251  0.401  0.808- 204 0.97 202 1.03
 127  0.535  0.662  0.311- 206 0.96 205 0.98
 128  0.009  0.837  0.284- 209 0.98 207 1.01
 129  0.413  0.759  0.247- 210 0.97 208 1.00
 130  0.326  0.526  0.207- 213 0.94 212 0.96
 131  0.524  0.339  0.698- 214 0.97 218 1.03
 132  0.114  0.752  0.726- 217 0.97 215 0.99
 133  0.910  0.090  0.176- 216 0.95 219 0.98
 134  0.492  0.884  0.684- 221 0.98 220 0.98
 135  0.610  0.374  0.195- 226 0.93 236 1.00
 136  0.260  0.763  0.305- 223 0.92 225 0.97
 137  0.654  0.697  0.718- 224 0.95 227 0.97
 138  0.988  0.152  0.674- 229 0.98 228 1.02
 139  0.124  0.126  0.295- 231 0.99 233 0.99
 140  0.503  0.077  0.734- 234 0.98 232 1.00
 141  0.432  0.605  0.826- 235 0.95 211 1.00
 142  0.729  0.158  0.681- 237 0.95 238 1.06
 143  0.675  0.330  0.799- 239 0.94 240 1.01
 144  0.537  0.210  0.283- 242 0.99 241 1.01
 145  0.224  0.988  0.680- 244 0.98 243 0.99
 146  0.505  0.812  0.770- 246 0.97 245 0.98
 147  0.019  0.326  0.737-  97 0.95
 148  0.001  0.405  0.766-  97 0.96
 149  0.399  0.473  0.757-  98 0.98
 150  0.492  0.383  0.735-  98 0.99
 151  0.017  0.396  0.866- 111 0.96
 152  0.934  0.959  0.690-  99 1.01
 153  0.847  0.534  0.797- 100 0.99
 154  0.932  0.678  0.781- 100 0.99
 155  0.051  0.535  0.700- 101 0.99
 156  0.961  0.436  0.679- 101 0.96
 157  0.087  0.140  0.775- 104 0.96
 158  0.238  0.543  0.779- 102 0.95
 159  0.409  0.363  0.333- 109 0.94
 160  0.024  0.925  0.774- 103 1.01
 161  0.451  0.134  0.800- 107 0.97
 162  0.214  0.091  0.788- 104 0.94
 163  0.629  0.049  0.171- 105 0.99
 164  0.269  0.175  0.698- 106 1.03
 165  0.279  0.238  0.730- 106 0.96
 166  0.773  0.981  0.242- 116 0.95
 167  0.417  0.243  0.772- 107 1.02
 168  0.309  0.494  0.693- 119 0.96
 169  0.348  0.115  0.216- 108 0.93
 170  0.352  0.944  0.214- 108 0.96
 171  0.209  0.643  0.752- 102 0.95
 172  0.429  0.525  0.316- 109 1.02
 173  0.921  0.206  0.244- 110 0.97
 174  0.960  0.362  0.254- 110 1.00
 175  0.874  0.939  0.765- 103 1.03
 176  0.975  0.410  0.833- 111 0.96
 177  0.461  0.262  0.249- 112 0.99
 178  0.637  0.324  0.297- 113 1.01
 179  0.673  0.425  0.325- 113 0.96
 180  0.814  0.655  0.202- 114 0.92
 181  0.719  0.522  0.198- 114 0.99
 182  0.339  0.099  0.336- 115 0.98
 183  0.274  0.109  0.305- 115 0.96
 184  0.373  0.371  0.225- 112 1.01
 185  0.910  0.943  0.254- 116 1.00
 186  0.084  0.728  0.204- 117 1.01
 187  0.065  0.686  0.237- 117 0.92
 188  0.479  0.059  0.181- 105 1.00
 189  0.228  0.424  0.318- 118 1.03
 190  0.099  0.426  0.341- 118 1.01
 191  0.300  0.636  0.672- 119 0.97
 192  0.198  0.945  0.179- 120 0.97
 193  0.783  0.872  0.801- 121 0.94
 194  0.994  0.493  0.295- 122 1.01
 195  0.739  0.786  0.828- 121 0.93
 196  0.054  0.916  0.167- 120 0.97
 197  0.847  0.485  0.287- 122 0.97
 198  0.827  0.143  0.752- 123 1.01
 199  0.684  0.091  0.749- 123 0.97
 200  0.877  0.903  0.300- 124 0.98
 201  0.570  0.861  0.260- 125 0.98
 202  0.293  0.302  0.800- 126 1.03
 203  0.796  0.925  0.332- 124 0.96
 204  0.199  0.369  0.825- 126 0.97
 205  0.544  0.720  0.329- 127 0.98
 206  0.606  0.593  0.306- 127 0.96
 207  0.106  0.823  0.287- 128 1.01
 208  0.388  0.670  0.234- 129 1.00
 209  0.975  0.734  0.287- 128 0.98
 210  0.391  0.746  0.268- 129 0.97
 211  0.501  0.530  0.832- 141 1.00
 212  0.238  0.560  0.211- 130 0.96
 213  0.352  0.580  0.190- 130 0.94
 214  0.509  0.420  0.684- 131 0.97
 215  0.030  0.784  0.736- 132 0.99
 216  0.919  0.058  0.196- 133 0.95
 217  0.134  0.844  0.716- 132 0.97
 218  0.431  0.293  0.702- 131 1.03
 219  0.945  0.194  0.176- 133 0.98
 220  0.506  0.903  0.663- 134 0.98
 221  0.527  0.785  0.690- 134 0.98
 222  0.670  0.905  0.287- 125 1.00
 223  0.230  0.704  0.320- 136 0.92
 224  0.721  0.766  0.711- 137 0.95
 225  0.303  0.857  0.311- 136 0.97
 226  0.641  0.324  0.178- 135 0.93
 227  0.632  0.735  0.738- 137 0.97
 228  0.891  0.176  0.669- 138 1.02
 229  0.032  0.244  0.681- 138 0.98
 230  0.844  0.884  0.669-  99 0.97
 231  0.087  0.162  0.276- 139 0.99
 232  0.521  0.026  0.715- 140 1.00
 233  0.108  0.217  0.308- 139 0.99
 234  0.492  0.989  0.748- 140 0.98
 235  0.358  0.546  0.820- 141 0.95
 236  0.539  0.304  0.201- 135 1.00
 237  0.698  0.059  0.686- 142 0.95
 238  0.649  0.231  0.686- 142 1.06
 239  0.712  0.239  0.792- 143 0.94
 240  0.623  0.383  0.783- 143 1.01
 241  0.467  0.175  0.297- 144 1.01
 242  0.578  0.116  0.275- 144 0.99
 243  0.293  0.916  0.675- 145 0.99
 244  0.158  0.988  0.664- 145 0.98
 245  0.551  0.837  0.788- 146 0.98
 246  0.436  0.741  0.775- 146 0.97
 
  LATTYP: Found a simple orthorhombic cell.
 ALAT       =     8.7818242400
 B/A-ratio  =     1.1547005384
 C/A-ratio  =     5.1212013325
  
  Lattice vectors:
  
 A1 = (   0.0000000000,  -8.7818242400,   0.0000000000)
 A2 = (  10.1403771780,   0.0000000000,   0.0000000000)
 A3 = (   0.0000000000,   0.0000000000,  44.9734900000)


Analysis of symmetry for initial positions (statically):
=====================================================================
 Subroutine PRICEL returns:
 Original cell was already a primitive cell.
 

 Routine SETGRP: Setting up the symmetry group for a 
 simple orthorhombic supercell.


 Subroutine GETGRP returns: Found  1 space group operations
 (whereof  1 operations were pure point group operations)
 out of a pool of  8 trial point group operations.


The static configuration has the point symmetry C_1 .


Analysis of symmetry for dynamics (positions and initial velocities):
=====================================================================
 Subroutine PRICEL returns:
 Original cell was already a primitive cell.
 

 Routine SETGRP: Setting up the symmetry group for a 
 simple orthorhombic supercell.


 Subroutine GETGRP returns: Found  1 space group operations
 (whereof  1 operations were pure point group operations)
 out of a pool of  8 trial point group operations.


The dynamic configuration has the point symmetry C_1 .


 Subroutine INISYM returns: Found  1 space group operations
 (whereof  1 operations are pure point group operations),
 and found     1 'primitive' translations


----------------------------------------------------------------------------------------

                                     Primitive cell                                     

  volume of cell :    4004.9347

  direct lattice vectors                    reciprocal lattice vectors
    10.140377178  0.000000000  0.000000000     0.098615661  0.000000000  0.000000000
     0.000000000  8.781824240  0.000000000     0.000000000  0.113871557  0.000000000
     0.000000000  0.000000000 44.973490000     0.000000000  0.000000000  0.022235321

  length of vectors
    10.140377178  8.781824240 44.973490000     0.098615661  0.113871557  0.022235321

  position of ions in fractional coordinates (direct lattice)
     0.691783932  0.119422795  0.380865261
     0.927669635  0.125144841  0.388648957
     0.182746654  0.125530866  0.388991381
     0.464623743  0.120229006  0.389120346
     0.809886048  0.380075928  0.385561805
     0.063075563  0.378383797  0.385996284
     0.318382634  0.373996326  0.386415864
     0.575890807  0.375194255  0.388953581
     0.928406294  0.634014055  0.387094486
     0.175505306  0.633526685  0.385356796
     0.439893894  0.627732900  0.388328769
     0.688004980  0.634952357  0.382799289
     0.058004746  0.880861401  0.384240360
     0.323238470  0.897693894  0.384035795
     0.576984455  0.875828278  0.382193599
     0.811778483  0.880856846  0.383939294
     0.565371475  0.204700066  0.432686011
     0.810188798  0.228597151  0.431469739
     0.055617261  0.204177395  0.430985009
     0.308091104  0.205189714  0.432670447
     0.689340236  0.465325869  0.432563717
     0.939594241  0.465739223  0.431883316
     0.187140968  0.461749164  0.431583139
     0.432892182  0.458656412  0.432216846
     0.807956140  0.705471874  0.432639317
     0.047641226  0.708146716  0.430627020
     0.306234171  0.709360587  0.433293036
     0.568700740  0.714162551  0.431087292
     0.929517693  0.966036187  0.432930600
     0.192413947  0.950604313  0.431418598
     0.434177144  0.947734750  0.431463069
     0.687224930  0.968315895  0.428094417
     0.562499787  0.041666741  0.477774796
     0.812500349  0.041666741  0.477774796
     0.062499648  0.041666741  0.477774796
     0.312500210  0.041666741  0.477774796
     0.687500068  0.291667190  0.477774796
     0.937499645  0.291667190  0.477774796
     0.187499929  0.291667190  0.477774796
     0.437500492  0.291667190  0.477774796
     0.812500349  0.541666500  0.477774796
     0.062499648  0.541666500  0.477774796
     0.312500210  0.541666500  0.477774796
     0.562499787  0.541666500  0.477774796
     0.937499645  0.791666949  0.477774796
     0.187499929  0.791666949  0.477774796
     0.437500492  0.791666949  0.477774796
     0.687500068  0.791666949  0.477774796
     0.687500068  0.125000224  0.523799687
     0.937499645  0.125000224  0.523799687
     0.187499929  0.125000224  0.523799687
     0.437500492  0.125000224  0.523799687
     0.812500349  0.374999534  0.523799687
     0.062499648  0.374999534  0.523799687
     0.312500210  0.374999534  0.523799687
     0.562499787  0.374999534  0.523799687
     0.937499645  0.624999983  0.523799687
     0.187499929  0.624999983  0.523799687
     0.437500492  0.624999983  0.523799687
     0.687500068  0.624999983  0.523799687
     0.062499648  0.875000432  0.523799687
     0.312500210  0.875000432  0.523799687
     0.562499787  0.875000432  0.523799687
     0.812500349  0.875000432  0.523799687
     0.577275371  0.220307301  0.571149804
     0.820382699  0.206570976  0.570338215
     0.065021250  0.211215796  0.569720073
     0.323692102  0.203307417  0.569495496
     0.684718120  0.462382290  0.567999059
     0.940077458  0.447722465  0.568141365
     0.173135572  0.468024625  0.572105923
     0.428463352  0.472972345  0.570111415
     0.817238832  0.716559547  0.568403742
     0.046900622  0.707710588  0.571567828
     0.309531879  0.717920312  0.571892464
     0.561228631  0.707066075  0.571876899
     0.931802618  0.965416725  0.571703464
     0.186306679  0.952808867  0.568216965
     0.448419218  0.963257721  0.570896321
     0.692552148  0.951289820  0.569811238
     0.568979822  0.035837656  0.614880010
     0.815347384  0.052267045  0.614942269
     0.064474919  0.047978642  0.614855552
     0.304301304  0.043471606  0.613254608
     0.705392894  0.317572969  0.615618223
     0.958022550  0.301123084  0.614773281
     0.197677065  0.293870605  0.614239633
     0.456781826  0.298986854  0.617537131
     0.819132253  0.554979224  0.615244670
     0.062030237  0.552076638  0.618097461
     0.308320879  0.543133166  0.618900157
     0.562014598  0.554199204  0.616810036
     0.936920771  0.811200476  0.616641048
     0.185104555  0.799559386  0.619133627
     0.445419329  0.796837856  0.617176919
     0.697125943  0.788581029  0.617003484
     0.023110580  0.307874529  0.757906491
     0.461254046  0.389220953  0.756003148
     0.850978208  0.894833441  0.689888643
     0.927149931  0.568143914  0.785616149
     0.990545009  0.446822880  0.699589914
     0.277457135  0.611961690  0.765415359
     0.950530718  0.862119281  0.765186335
     0.126360191  0.058627910  0.786085314
     0.547678839  0.108298683  0.168281359
     0.280111869  0.274218651  0.710018280
     0.385658238  0.156572252  0.785307078
     0.327713648  0.033365505  0.203325337
     0.385589208  0.419984493  0.316430413
     0.986536282  0.283201979  0.239028815
     0.026452665  0.350265493  0.846956666
     0.416588054  0.270001988  0.229105858
     0.696834040  0.405634399  0.304894506
     0.786618669  0.588427855  0.187896692
     0.353999653  0.079784106  0.314459029
     0.862282521  0.979417233  0.235788461
     0.080841174  0.640459186  0.218526514
     0.126129431  0.421042360  0.319182256
     0.346341161  0.592567086  0.688852477
     0.134045310  0.866523833  0.173950476
     0.706644326  0.846499520  0.812274075
     0.926714050  0.533951702  0.280282896
     0.761083130  0.072556679  0.761428566
     0.793082926  0.898763148  0.311329408
     0.639594552  0.933716023  0.266076082
     0.251386113  0.400586473  0.808273941
     0.535160567  0.661732670  0.310690809
     0.008597313  0.836648491  0.283668001
     0.413124672  0.759432188  0.246761815
     0.326275832  0.526115061  0.206802941
     0.523729040  0.339117468  0.697960065
     0.113533252  0.752454139  0.726407935
     0.910068712  0.090187412  0.176294746
     0.491864347  0.883856223  0.684042977
     0.610301756  0.374333386  0.194661121
     0.260196436  0.763336844  0.304952762
     0.653808027  0.697434819  0.717854007
     0.987803493  0.152405692  0.674063765
     0.123812949  0.126089975  0.295104071
     0.503353072  0.076868995  0.734245886
     0.431550023  0.604552067  0.826300116
     0.728982746  0.158265522  0.680798844
     0.675098163  0.330013437  0.798837271
     0.537114143  0.210282050  0.282671636
     0.223502534  0.988446109  0.680467538
     0.505153794  0.811999854  0.769640070
     0.018962805  0.326107643  0.737100901
     0.000603528  0.405206242  0.766180254
     0.398508845  0.473459715  0.756810290
     0.491981700  0.383275719  0.735064146
     0.016872153  0.396306041  0.866237358
     0.933719706  0.958847475  0.690253303
     0.847381695  0.534075822  0.796507009
     0.932157634  0.678245184  0.780588742
     0.050729868  0.535222509  0.700025726
     0.960908044  0.436341003  0.679431372
     0.086711765  0.140210048  0.775149983
     0.238247548  0.542796106  0.779030046
     0.409408834  0.362524905  0.333145593
     0.023888658  0.925316856  0.774033770
     0.451256390  0.133983551  0.800338155
     0.214335223  0.090654285  0.788411128
     0.629311897  0.049174293  0.171278013
     0.268835168  0.174811060  0.698326948
     0.278684900  0.237526958  0.730070092
     0.773469257  0.980552533  0.242289624
     0.416939126  0.242697866  0.771905849
     0.308662089  0.494267464  0.692592458
     0.347660638  0.115189051  0.215776894
     0.351555957  0.943926885  0.214234430
     0.208918264  0.642510012  0.752425484
     0.429220721  0.525212060  0.316257422
     0.920759636  0.206276048  0.243749151
     0.960076714  0.362493021  0.253905579
     0.873775190  0.938863017  0.765324194
     0.975407505  0.409591436  0.833235090
     0.461066676  0.262270109  0.248750319
     0.637278070  0.323675346  0.296583610
     0.672961161  0.424512026  0.325199356
     0.813917456  0.655310314  0.202422583
     0.719344051  0.522449536  0.197544153
     0.339448912  0.099212872  0.335757576
     0.273637750  0.109256343  0.304592105
     0.372874690  0.371028833  0.225399007
     0.909726516  0.942585478  0.253831757
     0.083817395  0.728030968  0.204052209
     0.065132686  0.686228719  0.236626733
     0.478889485  0.058892092  0.181091350
     0.227674963  0.423987078  0.318209905
     0.099343445  0.425762336  0.340815445
     0.299612129  0.636360948  0.672213786
     0.197919660  0.945132785  0.178510496
     0.782815063  0.872165030  0.801403227
     0.993976834  0.492814463  0.294804339
     0.738516908  0.785620369  0.827665365
     0.054328354  0.916245848  0.166764910
     0.846721956  0.485271611  0.287049326
     0.827496833  0.143186651  0.752036366
     0.683637293  0.090911635  0.749394810
     0.876638989  0.902653000  0.300251103
     0.570498503  0.861013588  0.260322248
     0.292633099  0.302046583  0.800269225
     0.796416135  0.925341908  0.331953780
     0.199027114  0.369160201  0.825315091
     0.544190803  0.719573727  0.329174587
     0.605678654  0.593110253  0.306155471
     0.106073964  0.823044256  0.287273458
     0.387607870  0.669708234  0.234362510
     0.974700430  0.733835001  0.286631747
     0.391372030  0.746203730  0.267566515
     0.500628321  0.529924065  0.832385701
     0.238163725  0.559817626  0.211024094
     0.352240349  0.580469372  0.189696641
     0.508880479  0.420391014  0.683638294
     0.029656688  0.783726685  0.735995806
     0.919159104  0.057948097  0.196397922
     0.134322420  0.844439583  0.715646039
     0.431107238  0.293244311  0.701582199
     0.944715352  0.194366222  0.176039262
     0.505767183  0.902802172  0.662688175
     0.526777250  0.785279893  0.690257750
     0.670092432  0.904725463  0.286545029
     0.229723210  0.703867423  0.320292910
     0.720526453  0.766136946  0.711216763
     0.303139612  0.856711521  0.310994544
     0.641006728  0.324295946  0.177690012
     0.632098776  0.735045456  0.737636772
     0.891184799  0.175827933  0.669340983
     0.032217737  0.243615670  0.681352503
     0.844091876  0.884361812  0.668576088
     0.086610191  0.162438915  0.276129338
     0.521478630  0.026442114  0.714785533
     0.107708025  0.216986807  0.307750410
     0.492289381  0.989496005  0.747664902
     0.357959072  0.545517636  0.819834084
     0.539104207  0.304032502  0.201341279
     0.697755111  0.058983189  0.685657262
     0.649084337  0.231473546  0.685761768
     0.711522843  0.238822817  0.791746427
     0.623267743  0.383230170  0.782674416
     0.466708478  0.174635697  0.297118591
     0.577599817  0.115772073  0.274584205
     0.293254378  0.916221935  0.674537377
     0.158491146  0.987976958  0.664373612
     0.551235906  0.837271369  0.788166540
     0.435747105  0.741205907  0.774812006

  ion indices of the primitive-cell ions
   primitive index   ion index
                 1           1
                 2           2
                 3           3
                 4           4
                 5           5
                 6           6
                 7           7
                 8           8
                 9           9
                10          10
                11          11
                12          12
                13          13
                14          14
                15          15
                16          16
                17          17
                18          18
                19          19
                20          20
                21          21
                22          22
                23          23
                24          24
                25          25
                26          26
                27          27
                28          28
                29          29
                30          30
                31          31
                32          32
                33          33
                34          34
                35          35
                36          36
                37          37
                38          38
                39          39
                40          40
                41          41
                42          42
                43          43
                44          44
                45          45
                46          46
                47          47
                48          48
                49          49
                50          50
                51          51
                52          52
                53          53
                54          54
                55          55
                56          56
                57          57
                58          58
                59          59
                60          60
                61          61
                62          62
                63          63
                64          64
                65          65
                66          66
                67          67
                68          68
                69          69
                70          70
                71          71
                72          72
                73          73
                74          74
                75          75
                76          76
                77          77
                78          78
                79          79
                80          80
                81          81
                82          82
                83          83
                84          84
                85          85
                86          86
                87          87
                88          88
                89          89
                90          90
                91          91
                92          92
                93          93
                94          94
                95          95
                96          96
                97          97
                98          98
                99          99
               100         100
               101         101
               102         102
               103         103
               104         104
               105         105
               106         106
               107         107
               108         108
               109         109
               110         110
               111         111
               112         112
               113         113
               114         114
               115         115
               116         116
               117         117
               118         118
               119         119
               120         120
               121         121
               122         122
               123         123
               124         124
               125         125
               126         126
               127         127
               128         128
               129         129
               130         130
               131         131
               132         132
               133         133
               134         134
               135         135
               136         136
               137         137
               138         138
               139         139
               140         140
               141         141
               142         142
               143         143
               144         144
               145         145
               146         146
               147         147
               148         148
               149         149
               150         150
               151         151
               152         152
               153         153
               154         154
               155         155
               156         156
               157         157
               158         158
               159         159
               160         160
               161         161
               162         162
               163         163
               164         164
               165         165
               166         166
               167         167
               168         168
               169         169
               170         170
               171         171
               172         172
               173         173
               174         174
               175         175
               176         176
               177         177
               178         178
               179         179
               180         180
               181         181
               182         182
               183         183
               184         184
               185         185
               186         186
               187         187
               188         188
               189         189
               190         190
               191         191
               192         192
               193         193
               194         194
               195         195
               196         196
               197         197
               198         198
               199         199
               200         200
               201         201
               202         202
               203         203
               204         204
               205         205
               206         206
               207         207
               208         208
               209         209
               210         210
               211         211
               212         212
               213         213
               214         214
               215         215
               216         216
               217         217
               218         218
               219         219
               220         220
               221         221
               222         222
               223         223
               224         224
               225         225
               226         226
               227         227
               228         228
               229         229
               230         230
               231         231
               232         232
               233         233
               234         234
               235         235
               236         236
               237         237
               238         238
               239         239
               240         240
               241         241
               242         242
               243         243
               244         244
               245         245
               246         246

----------------------------------------------------------------------------------------

 
 
 KPOINTS: KPOINTS created by Atomic Simulation Env

Automatic generation of k-mesh.
 Grid dimensions read from file:
 generate k-points for:    2    2    1

 Generating k-lattice:

  Cartesian coordinates                     Fractional coordinates (reciprocal lattice)
     0.049307831  0.000000000  0.000000000     0.500000000  0.000000000  0.000000000
     0.000000000  0.056935779  0.000000000     0.000000000  0.500000000  0.000000000
     0.000000000  0.000000000  0.022235321     0.000000000  0.000000000  1.000000000

  Length of vectors
     0.049307831  0.056935779  0.022235321

  Shift w.r.t. Gamma in fractional coordinates (k-lattice)
     0.500000000  0.500000000  0.000000000

 
 Subroutine IBZKPT returns following result:
 ===========================================
 
 Found      2 irreducible k-points:
 
 Following reciprocal coordinates:
            Coordinates               Weight
  0.250000  0.250000  0.000000      2.000000
 -0.250000  0.250000  0.000000      2.000000
 
 Following cartesian coordinates:
            Coordinates               Weight
  0.024654  0.028468  0.000000      2.000000
 -0.024654  0.028468  0.000000      2.000000
 


--------------------------------------------------------------------------------------------------------




 Dimension of arrays:
   k-points           NKPTS =      2   k-points in BZ     NKDIM =      2   number of bands    NBANDS=    874
   number of dos      NEDOS =    301   number of ions     NIONS =    246
   non local maximal  LDIM  =      6   non local SUM 2l+1 LMDIM =     18
   total plane-waves  NPLWV = ******
   max r-space proj   IRMAX =   8790   max aug-charges    IRDMAX=  24692
   dimension x,y,z NGX =    96 NGY =   84 NGZ =  420
   dimension x,y,z NGXF=   192 NGYF=  168 NGZF=  840
   support grid    NGXF=   192 NGYF=  168 NGZF=  840
   ions per type =              96  50 100
   NGX,Y,Z   is equivalent  to a cutoff of  15.74, 15.90, 15.53 a.u.
   NGXF,Y,Z  is equivalent  to a cutoff of  31.48, 31.80, 31.05 a.u.

 SYSTEM =  unknown system                          
 POSCAR =  Cu O  H                                 

 Startparameter for this run:
   NWRITE =      2    write-flag & timer
   PREC   = accura    normal or accurate (medium, high low for compatibility)
   ISTART =      1    job   : 0-new  1-cont  2-samecut
   ICHARG =      1    charge: 1-file 2-atom 10-const
   ISPIN  =      1    spin polarized calculation?
   LNONCOLLINEAR =      F non collinear calculations
   LSORBIT =      F    spin-orbit coupling
   INIWAV =      1    electr: 0-lowe 1-rand  2-diag
   LASPH  =      T    aspherical Exc in radial PAW
 Electronic Relaxation 1
   ENCUT  =  800.0 eV  58.80 Ry    7.67 a.u.  23.39 20.25103.72*2*pi/ulx,y,z
   ENINI  =  800.0     initial cutoff
   ENAUG  = 1000.0 eV  augmentation charge cutoff
   NELM   =    300;   NELMIN=  2; NELMDL=  0     # of ELM steps 
   EDIFF  = 0.1E-06   stopping-criterion for ELM
   LREAL  =      T    real-space projection
   NLSPLINE    = F    spline interpolate recip. space projectors
   LCOMPAT=      F    compatible to vasp.4.4
   GGA_COMPAT  = T    GGA compatible to vasp.4.4-vasp.4.6
   LMAXPAW     = -100 max onsite density
   LMAXMIX     =    2 max onsite mixed and CHGCAR
   VOSKOWN=      0    Vosko Wilk Nusair interpolation
   ROPT   =   -0.00025  -0.00025  -0.00025
 Ionic relaxation
   EDIFFG = 0.1E-05   stopping-criterion for IOM
   NSW    =      0    number of steps for IOM
   NBLOCK =      1;   KBLOCK =      1    inner block; outer block 
   IBRION =     -1    ionic relax: 0-MD 1-quasi-New 2-CG
   NFREE  =      0    steps in history (QN), initial steepest desc. (CG)
   ISIF   =      2    stress and relaxation
   IWAVPR =     10    prediction:  0-non 1-charg 2-wave 3-comb
   ISYM   =      2    0-nonsym 1-usesym 2-fastsym
   LCORR  =      T    Harris-Foulkes like correction to forces

   POTIM  = 0.5000    time-step for ionic-motion
   TEIN   =    0.0    initial temperature
   TEBEG  =    0.0;   TEEND  =   0.0 temperature during run
   SMASS  =  -3.00    Nose mass-parameter (am)
   estimated Nose-frequenzy (Omega)   =  0.10E-29 period in steps = 0.13E+47 mass=  -0.235E-26a.u.
   SCALEE = 1.0000    scale energy and forces
   NPACO  =    256;   APACO  = 10.0  distance and # of slots for P.C.
   PSTRESS=    0.0 pullay stress

  Mass of Ions in am
   POMASS =  63.55 16.00  1.00
  Ionic Valenz
   ZVAL   =  11.00  6.00  1.00
  Atomic Wigner-Seitz radii
   RWIGS  =  -1.00 -1.00 -1.00
  virtual crystal weights 
   VCA    =   1.00  1.00  1.00
   NELECT =    1456.0000    total number of electrons
   NUPDOWN=      -1.0000    fix difference up-down

 DOS related values:
   EMIN   =  10.00;   EMAX   =-10.00  energy-range for DOS
   EFERMI =   0.00;   METHOD = LEGACY      
   ISMEAR =     0;   SIGMA  =   0.10  broadening in eV -4-tet -1-fermi 0-gaus

 Electronic relaxation 2 (details)
   IALGO  =     58    algorithm
   LDIAG  =      T    sub-space diagonalisation (order eigenvalues)
   LSUBROT=      F    optimize rotation matrix (better conditioning)
   TURBO    =      0    0=normal 1=particle mesh
   IRESTART =      0    0=no restart 2=restart with 2 vectors
   NREBOOT  =      0    no. of reboots
   NMIN     =      0    reboot dimension
   EREF     =   0.00    reference energy to select bands
   IMIX   =      4    mixing-type and parameters
     AMIX     =   0.40;   BMIX     =  1.00
     AMIX_MAG =   1.60;   BMIX_MAG =  1.00
     AMIN     =   0.10
     WC   =   100.;   INIMIX=   1;  MIXPRE=   1;  MAXMIX= -45

 Intra band minimization:
   WEIMIN = 0.0000     energy-eigenvalue tresh-hold
   EBREAK =  0.29E-10  absolut break condition
   DEPER  =   0.30     relativ break condition  

   TIME   =   0.40     timestep for ELM

  volume/ion in A,a.u.               =      16.28       109.86
  Fermi-wavevector in a.u.,A,eV,Ry     =   1.168414  2.207983 18.574560  1.365192
  Thomas-Fermi vector in A             =   2.304901
 
 Write flags
   LWAVE        =      T    write WAVECAR
   LDOWNSAMPLE  =      F    k-point downsampling of WAVECAR
   LCHARG       =      T    write CHGCAR
   LVTOT        =      F    write LOCPOT, total local potential
   LVHAR        =      T    write LOCPOT, Hartree potential only
   WRT_POTENTIAL=  hartree ionic  ! write potential to hdf5 file
   LELF         =      F    write electronic localiz. function (ELF)
   LORBIT       =      0    0 simple, 1 ext, 2 COOP (PROOUT), +10 PAW based schemes


 Dipole corrections
   LMONO      =      F    monopole corrections only (constant potential shift)
   LDIPOL     =      T    correct potential (dipole corrections)
   IDIPOL     =      3    1-x, 2-y, 3-z, 4-all directions 
   EPSILON    =  1.0000000 bulk dielectric constant
   LVACPOTAV  =      T  vacuum potentials using an averaging scheme for the charge density
   VACPOTFLAT =  0.1000000 required flatness to determine vacuum potential
 Exchange correlation treatment:
   METAGGA = R2SCAN    functional components
   XC_C    = 1    coefficients multiplying the functional components
   LIBXC   =     F    Libxc                    
   VOSKOWN =     0    Vosko Wilk Nusair interpolation
   LHFCALC =     F    Hartree Fock is set to
   LHFONE  =     F    Hartree Fock one center treatment
   AEXX    =    0.0000 exact exchange contribution

 Parameters of functionals:
   R2SCAN:
     No parameter
 
 Accuracy and mixing parameters for tau-dependent meta-GGA functionals:
   LMAXTAU = 6
   LMIXTAU = T
 
 Van der Waals corrections
   IVDW    =     0    specifies the selected vdW correction

 Linear response parameters
   LEPSILON=     F    determine dielectric tensor
   LRPA    =     F    only Hartree local field effects (RPA)
   LNABLA  =     F    use nabla operator in PAW spheres
   LVEL    =     F    velocity operator in full k-point grid
   CSHIFT  =0.1000    complex shift for real part using Kramers Kronig
   OMEGAMAX=  -1.0    maximum frequency
   DEG_THRESHOLD= 0.2000000E-02 threshold for treating states as degnerate
   RTIME   =   -0.100 relaxation time in fs
  (WPLASMAI=    0.000 imaginary part of plasma frequency in eV, 0.658/RTIME)
   DFIELD  = 0.0000000 0.0000000 0.0000000 field for delta impulse in time
 
  Optional k-point grid parameters
   LKPOINTS_OPT  =     F    use optional k-point grid
   KPOINTS_OPT_MODE=     1    mode for optional k-point grid
 
 Orbital magnetization related:
   ORBITALMAG=     F  switch on orbital magnetization
   LCHIMAG   =     F  perturbation theory with respect to B field
   DQ        =  0.001000  dq finite difference perturbation B field
   LLRAUG    =     F  two centre corrections for induced B field
   LBONE     =     F  B-component reconstruction in AE one-centre
   LVGVCALC  =     T  calculate vGv susceptibility
   LVGVAPPL  =     F  apply vGv susceptibility instead of pGv for G=0

 Random number generation:
   RANDOM_GENERATOR = DEFAULT
   PCG_SEED         = not used


--------------------------------------------------------------------------------------------------------


 Static calculation
 charge density and potential will be updated during run
 non-spin polarized calculation
 Conjugate gradient for all bands (Freysoldt, et al. PRB 79, 241103 (2009))
 preconditioned conjugated gradient                                        
 perform sub-space diagonalisation
    before iterative eigenvector-optimisation
 modified Broyden-mixing scheme, WC =      100.0
 initial mixing is a Kerker type mixing with AMIX =  0.4000 and BMIX =      1.0000
 Hartree-type preconditioning will be used
 using additional bands           146
 real space projection scheme for non local part
 use partial core corrections
 no Harris-corrections to forces 
 use gradient corrections 
 use of overlap-Matrix (Vanderbilt PP)
 Gauss-broadening in eV      SIGMA  =   0.10


--------------------------------------------------------------------------------------------------------


  energy-cutoff  :      800.00
  volume of cell :     4004.93
      direct lattice vectors                 reciprocal lattice vectors
    10.140377178  0.000000000  0.000000000     0.098615661  0.000000000  0.000000000
     0.000000000  8.781824240  0.000000000     0.000000000  0.113871557  0.000000000
     0.000000000  0.000000000 44.973490000     0.000000000  0.000000000  0.022235321

  length of vectors
    10.140377178  8.781824240 44.973490000     0.098615661  0.113871557  0.022235321


 
 old parameters found on file WAVECAR:
  energy-cutoff  :      800.00
  volume of cell :     4004.93
      direct lattice vectors                 reciprocal lattice vectors
    10.140377178  0.000000000  0.000000000     0.098615661  0.000000000  0.000000000
     0.000000000  8.781824240  0.000000000     0.000000000  0.113871557  0.000000000
     0.000000000  0.000000000 44.973490000     0.000000000  0.000000000  0.022235321

  length of vectors

 
 k-points in units of 2pi/SCALE and weight: KPOINTS created by Atomic Simulation Env
   0.02465392  0.02846789  0.00000000       0.500
  -0.02465392  0.02846789  0.00000000       0.500
 
 k-points in reciprocal lattice and weights: KPOINTS created by Atomic Simulation Env
   0.25000000  0.25000000  0.00000000       0.500
  -0.25000000  0.25000000  0.00000000       0.500
 
 position of ions in fractional coordinates (direct lattice) 
   0.69178393  0.11942280  0.38086526
   0.92766964  0.12514484  0.38864896
   0.18274665  0.12553087  0.38899138
   0.46462374  0.12022901  0.38912035
   0.80988605  0.38007593  0.38556181
   0.06307556  0.37838380  0.38599628
   0.31838263  0.37399633  0.38641586
   0.57589081  0.37519425  0.38895358
   0.92840629  0.63401406  0.38709449
   0.17550531  0.63352669  0.38535680
   0.43989389  0.62773290  0.38832877
   0.68800498  0.63495236  0.38279929
   0.05800475  0.88086140  0.38424036
   0.32323847  0.89769389  0.38403580
   0.57698446  0.87582828  0.38219360
   0.81177848  0.88085685  0.38393929
   0.56537147  0.20470007  0.43268601
   0.81018880  0.22859715  0.43146974
   0.05561726  0.20417740  0.43098501
   0.30809110  0.20518971  0.43267045
   0.68934024  0.46532587  0.43256372
   0.93959424  0.46573922  0.43188332
   0.18714097  0.46174916  0.43158314
   0.43289218  0.45865641  0.43221685
   0.80795614  0.70547187  0.43263932
   0.04764123  0.70814672  0.43062702
   0.30623417  0.70936059  0.43329304
   0.56870074  0.71416255  0.43108729
   0.92951769  0.96603619  0.43293060
   0.19241395  0.95060431  0.43141860
   0.43417714  0.94773475  0.43146307
   0.68722493  0.96831590  0.42809442
   0.56249979  0.04166674  0.47777480
   0.81250035  0.04166674  0.47777480
   0.06249965  0.04166674  0.47777480
   0.31250021  0.04166674  0.47777480
   0.68750007  0.29166719  0.47777480
   0.93749964  0.29166719  0.47777480
   0.18749993  0.29166719  0.47777480
   0.43750049  0.29166719  0.47777480
   0.81250035  0.54166650  0.47777480
   0.06249965  0.54166650  0.47777480
   0.31250021  0.54166650  0.47777480
   0.56249979  0.54166650  0.47777480
   0.93749964  0.79166695  0.47777480
   0.18749993  0.79166695  0.47777480
   0.43750049  0.79166695  0.47777480
   0.68750007  0.79166695  0.47777480
   0.68750007  0.12500022  0.52379969
   0.93749964  0.12500022  0.52379969
   0.18749993  0.12500022  0.52379969
   0.43750049  0.12500022  0.52379969
   0.81250035  0.37499953  0.52379969
   0.06249965  0.37499953  0.52379969
   0.31250021  0.37499953  0.52379969
   0.56249979  0.37499953  0.52379969
   0.93749964  0.62499998  0.52379969
   0.18749993  0.62499998  0.52379969
   0.43750049  0.62499998  0.52379969
   0.68750007  0.62499998  0.52379969
   0.06249965  0.87500043  0.52379969
   0.31250021  0.87500043  0.52379969
   0.56249979  0.87500043  0.52379969
   0.81250035  0.87500043  0.52379969
   0.57727537  0.22030730  0.57114980
   0.82038270  0.20657098  0.57033821
   0.06502125  0.21121580  0.56972007
   0.32369210  0.20330742  0.56949550
   0.68471812  0.46238229  0.56799906
   0.94007746  0.44772247  0.56814137
   0.17313557  0.46802463  0.57210592
   0.42846335  0.47297234  0.57011141
   0.81723883  0.71655955  0.56840374
   0.04690062  0.70771059  0.57156783
   0.30953188  0.71792031  0.57189246
   0.56122863  0.70706608  0.57187690
   0.93180262  0.96541673  0.57170346
   0.18630668  0.95280887  0.56821697
   0.44841922  0.96325772  0.57089632
   0.69255215  0.95128982  0.56981124
   0.56897982  0.03583766  0.61488001
   0.81534738  0.05226704  0.61494227
   0.06447492  0.04797864  0.61485555
   0.30430130  0.04347161  0.61325461
   0.70539289  0.31757297  0.61561822
   0.95802255  0.30112308  0.61477328
   0.19767707  0.29387060  0.61423963
   0.45678183  0.29898685  0.61753713
   0.81913225  0.55497922  0.61524467
   0.06203024  0.55207664  0.61809746
   0.30832088  0.54313317  0.61890016
   0.56201460  0.55419920  0.61681004
   0.93692077  0.81120048  0.61664105
   0.18510455  0.79955939  0.61913363
   0.44541933  0.79683786  0.61717692
   0.69712594  0.78858103  0.61700348
   0.02311058  0.30787453  0.75790649
   0.46125405  0.38922095  0.75600315
   0.85097821  0.89483344  0.68988864
   0.92714993  0.56814391  0.78561615
   0.99054501  0.44682288  0.69958991
   0.27745714  0.61196169  0.76541536
   0.95053072  0.86211928  0.76518634
   0.12636019  0.05862791  0.78608531
   0.54767884  0.10829868  0.16828136
   0.28011187  0.27421865  0.71001828
   0.38565824  0.15657225  0.78530708
   0.32771365  0.03336550  0.20332534
   0.38558921  0.41998449  0.31643041
   0.98653628  0.28320198  0.23902881
   0.02645266  0.35026549  0.84695667
   0.41658805  0.27000199  0.22910586
   0.69683404  0.40563440  0.30489451
   0.78661867  0.58842785  0.18789669
   0.35399965  0.07978411  0.31445903
   0.86228252  0.97941723  0.23578846
   0.08084117  0.64045919  0.21852651
   0.12612943  0.42104236  0.31918226
   0.34634116  0.59256709  0.68885248
   0.13404531  0.86652383  0.17395048
   0.70664433  0.84649952  0.81227408
   0.92671405  0.53395170  0.28028290
   0.76108313  0.07255668  0.76142857
   0.79308293  0.89876315  0.31132941
   0.63959455  0.93371602  0.26607608
   0.25138611  0.40058647  0.80827394
   0.53516057  0.66173267  0.31069081
   0.00859731  0.83664849  0.28366800
   0.41312467  0.75943219  0.24676181
   0.32627583  0.52611506  0.20680294
   0.52372904  0.33911747  0.69796006
   0.11353325  0.75245414  0.72640793
   0.91006871  0.09018741  0.17629475
   0.49186435  0.88385622  0.68404298
   0.61030176  0.37433339  0.19466112
   0.26019644  0.76333684  0.30495276
   0.65380803  0.69743482  0.71785401
   0.98780349  0.15240569  0.67406377
   0.12381295  0.12608998  0.29510407
   0.50335307  0.07686899  0.73424589
   0.43155002  0.60455207  0.82630012
   0.72898275  0.15826552  0.68079884
   0.67509816  0.33001344  0.79883727
   0.53711414  0.21028205  0.28267164
   0.22350253  0.98844611  0.68046754
   0.50515379  0.81199985  0.76964007
   0.01896281  0.32610764  0.73710090
   0.00060353  0.40520624  0.76618025
   0.39850885  0.47345971  0.75681029
   0.49198170  0.38327572  0.73506415
   0.01687215  0.39630604  0.86623736
   0.93371971  0.95884748  0.69025330
   0.84738169  0.53407582  0.79650701
   0.93215763  0.67824518  0.78058874
   0.05072987  0.53522251  0.70002573
   0.96090804  0.43634100  0.67943137
   0.08671176  0.14021005  0.77514998
   0.23824755  0.54279611  0.77903005
   0.40940883  0.36252491  0.33314559
   0.02388866  0.92531686  0.77403377
   0.45125639  0.13398355  0.80033815
   0.21433522  0.09065429  0.78841113
   0.62931190  0.04917429  0.17127801
   0.26883517  0.17481106  0.69832695
   0.27868490  0.23752696  0.73007009
   0.77346926  0.98055253  0.24228962
   0.41693913  0.24269787  0.77190585
   0.30866209  0.49426746  0.69259246
   0.34766064  0.11518905  0.21577689
   0.35155596  0.94392689  0.21423443
   0.20891826  0.64251001  0.75242548
   0.42922072  0.52521206  0.31625742
   0.92075964  0.20627605  0.24374915
   0.96007671  0.36249302  0.25390558
   0.87377519  0.93886302  0.76532419
   0.97540750  0.40959144  0.83323509
   0.46106668  0.26227011  0.24875032
   0.63727807  0.32367535  0.29658361
   0.67296116  0.42451203  0.32519936
   0.81391746  0.65531031  0.20242258
   0.71934405  0.52244954  0.19754415
   0.33944891  0.09921287  0.33575758
   0.27363775  0.10925634  0.30459211
   0.37287469  0.37102883  0.22539901
   0.90972652  0.94258548  0.25383176
   0.08381740  0.72803097  0.20405221
   0.06513269  0.68622872  0.23662673
   0.47888948  0.05889209  0.18109135
   0.22767496  0.42398708  0.31820991
   0.09934344  0.42576234  0.34081544
   0.29961213  0.63636095  0.67221379
   0.19791966  0.94513278  0.17851050
   0.78281506  0.87216503  0.80140323
   0.99397683  0.49281446  0.29480434
   0.73851691  0.78562037  0.82766536
   0.05432835  0.91624585  0.16676491
   0.84672196  0.48527161  0.28704933
   0.82749683  0.14318665  0.75203637
   0.68363729  0.09091164  0.74939481
   0.87663899  0.90265300  0.30025110
   0.57049850  0.86101359  0.26032225
   0.29263310  0.30204658  0.80026923
   0.79641614  0.92534191  0.33195378
   0.19902711  0.36916020  0.82531509
   0.54419080  0.71957373  0.32917459
   0.60567865  0.59311025  0.30615547
   0.10607396  0.82304426  0.28727346
   0.38760787  0.66970823  0.23436251
   0.97470043  0.73383500  0.28663175
   0.39137203  0.74620373  0.26756652
   0.50062832  0.52992407  0.83238570
   0.23816372  0.55981763  0.21102409
   0.35224035  0.58046937  0.18969664
   0.50888048  0.42039101  0.68363829
   0.02965669  0.78372669  0.73599581
   0.91915910  0.05794810  0.19639792
   0.13432242  0.84443958  0.71564604
   0.43110724  0.29324431  0.70158220
   0.94471535  0.19436622  0.17603926
   0.50576718  0.90280217  0.66268817
   0.52677725  0.78527989  0.69025775
   0.67009243  0.90472546  0.28654503
   0.22972321  0.70386742  0.32029291
   0.72052645  0.76613695  0.71121676
   0.30313961  0.85671152  0.31099454
   0.64100673  0.32429595  0.17769001
   0.63209878  0.73504546  0.73763677
   0.89118480  0.17582793  0.66934098
   0.03221774  0.24361567  0.68135250
   0.84409188  0.88436181  0.66857609
   0.08661019  0.16243891  0.27612934
   0.52147863  0.02644211  0.71478553
   0.10770803  0.21698681  0.30775041
   0.49228938  0.98949600  0.74766490
   0.35795907  0.54551764  0.81983408
   0.53910421  0.30403250  0.20134128
   0.69775511  0.05898319  0.68565726
   0.64908434  0.23147355  0.68576177
   0.71152284  0.23882282  0.79174643
   0.62326774  0.38323017  0.78267442
   0.46670848  0.17463570  0.29711859
   0.57759982  0.11577207  0.27458421
   0.29325438  0.91622194  0.67453738
   0.15849115  0.98797696  0.66437361
   0.55123591  0.83727137  0.78816654
   0.43574711  0.74120591  0.77481201
 
 position of ions in cartesian coordinates  (Angst):
   7.01495000  1.04875000 17.12884000
   9.40692000  1.09900000 17.47890000
   1.85312000  1.10239000 17.49430000
   4.71146000  1.05583000 17.50010000
   8.21255000  3.33776000 17.34006000
   0.63961000  3.32290000 17.35960000
   3.22852000  3.28437000 17.37847000
   5.83975000  3.29489000 17.49260000
   9.41439000  5.56780000 17.40899000
   1.77969000  5.56352000 17.33084000
   4.46069000  5.51264000 17.46450000
   6.97663000  5.57604000 17.21582000
   0.58819000  7.73557000 17.28063000
   3.27776000  7.88339000 17.27143000
   5.85084000  7.69137000 17.18858000
   8.23174000  7.73553000 17.26709000
[...]
      3.16887      0.36591     21.48720         0.014921     -0.091203      0.040270
      6.97151      2.56137     21.48720        -0.034313      0.011924      0.155427
      9.50660      2.56137     21.48720         0.043949     -0.011873     -0.005286
      1.90132      2.56137     21.48720        -0.117285      0.008341     -0.016491
      4.43642      2.56137     21.48720        -0.003431     -0.038903      0.071546
      8.23906      4.75682     21.48720         0.047792     -0.062432      0.216285
      0.63377      4.75682     21.48720         0.084925      0.036460      0.012579
      3.16887      4.75682     21.48720        -0.043782     -0.091080      0.179459
      5.70396      4.75682     21.48720        -0.066617      0.049549     -0.011269
      9.50660      6.95228     21.48720        -0.001228      0.012186      0.047430
      1.90132      6.95228     21.48720        -0.205872     -0.036658      0.095879
      4.43642      6.95228     21.48720         0.072791     -0.059900      0.071697
      6.97151      6.95228     21.48720        -0.045209      0.153359     -0.088702
      6.97151      1.09773     23.55710         0.032487      0.014862      0.131833
      9.50660      1.09773     23.55710         0.045696     -0.012889      0.017131
      1.90132      1.09773     23.55710         0.048260      0.071830     -0.032235
      4.43642      1.09773     23.55710         0.165979      0.016490      0.040728
      8.23906      3.29318     23.55710        -0.086994     -0.101066     -0.165844
      0.63377      3.29318     23.55710         0.172022      0.003944     -0.167532
      3.16887      3.29318     23.55710        -0.097359      0.063232      0.243963
      5.70396      3.29318     23.55710        -0.186429      0.012541      0.013749
      9.50660      5.48864     23.55710         0.058762     -0.028882     -0.086476
      1.90132      5.48864     23.55710        -0.010432      0.060355      0.373670
      4.43642      5.48864     23.55710        -0.017922      0.138912      0.145146
      6.97151      5.48864     23.55710        -0.065885      0.177797     -0.049044
      0.63377      7.68410     23.55710        -0.144672     -0.043380      0.106693
      3.16887      7.68410     23.55710         0.162583     -0.001109      0.105888
      5.70396      7.68410     23.55710         0.000433     -0.039629      0.119400
      8.23906      7.68410     23.55710         0.072419      0.176101     -0.173102
      5.85379      1.93470     25.68660        -0.543362     -0.495176     -0.005643
      8.31899      1.81407     25.65010        -0.425587      0.341825     -0.113220
      0.65934      1.85486     25.62230         0.499816     -0.420891     -0.233268
      3.28236      1.78541     25.61220        -0.238761      0.566165      0.057712
      6.94330      4.06056     25.54490         0.328212      0.278991      0.565565
      9.53274      3.93182     25.55130        -0.688262      0.747402      0.467686
      1.75566      4.11011     25.72960         0.986813     -0.116555     -0.328586
      4.34478      4.15356     25.63990         0.071549     -0.678707      0.330268
      8.28711      6.29270     25.56310        -0.634156     -0.638639      0.383426
      0.47559      6.21499     25.70540         0.975011      0.239775     -0.122708
      3.13877      6.30465     25.72000        -0.067959     -0.250299      0.009260
      5.69107      6.20933     25.71930         0.177426      0.287272     -0.487306
      9.44883      8.47812     25.71150         0.722915     -0.231107     -0.728440
      1.88922      8.36740     25.55470        -0.145040      0.301142      0.428366
      4.54714      8.45916     25.67520        -0.374767     -0.184125     -0.349762
      7.02274      8.35406     25.62640        -0.340886      0.452955      0.030370
      5.76967      0.31472     27.65330         0.033268      0.537974      0.082939
      8.26793      0.45900     27.65610        -0.341492      0.120874      0.361384
      0.65380      0.42134     27.65220         0.008517      0.040171      0.090255
      3.08573      0.38176     27.58020         0.723651     -0.090128      0.240009
      7.15295      2.78887     27.68650        -0.232036     -0.604018     -0.046257
      9.71471      2.64441     27.64850        -0.680965      0.039950      0.164671
      2.00452      2.58072     27.62450         0.258826      0.127004      0.085625
      4.63194      2.62565     27.77280        -0.463292     -0.142292     -0.494852
      8.30631      4.87373     27.66970         0.213600     -0.115080     -0.303491
      0.62901      4.84824     27.79800         0.079614      0.077014     -0.109855
      3.12649      4.76970     27.83410         0.304368      0.189140     -0.419868
      5.69904      4.86688     27.74010         0.171072     -0.473670     -0.124831
      9.50073      7.12382     27.73250         0.164503     -0.627205      0.079359
      1.87703      7.02159     27.84460         0.099372     -0.259289     -0.592484
      4.51672      6.99769     27.75660        -0.536215     -0.030028     -0.195674
      7.06912      6.92518     27.74880        -0.298805      0.450200     -0.273102
      0.23435      2.70370     34.08570         0.101879     -0.902803     -0.032027
      4.67729      3.41807     34.00010         0.488018      0.069804     -0.807338
      8.62924      7.85827     31.02670         1.675265      0.525982     -0.228324
      9.40165      4.98934     35.33190        -0.248031     -0.524090      0.528175
     10.04450      3.92392     31.46300         0.829975      0.430122      0.046940
      2.81352      5.37414     34.42340         1.334059     -0.042177      0.006455
      9.63874      7.57098     34.41310        -1.003897      1.753072      0.781003
      1.28134      0.51486     35.35300        -1.456784     -0.858536     -0.012944
      5.55367      0.95106      7.56820         0.286202     -1.205031      0.705203
      2.84044      2.40814     31.93200        -0.437665     -1.879369     -1.812902
      3.91072      1.37499     35.31800        -0.337481      0.249117      0.243240
      3.32314      0.29301      9.14425        -0.459860     -2.301964     -1.862311
      3.91002      3.68823     14.23098        -0.864515      1.642057     -1.237474
     10.00385      2.48703     10.74996        -0.627567      0.480776      1.964223
      0.26824      3.07597     38.09060         0.350353     -0.255523      0.103866
      4.22436      2.37111     10.30369        -0.187683      0.578078      0.697728
      7.06616      3.56221     13.71217         0.299131      0.411892     -0.144371
      7.97661      5.16747      8.45037        -1.284201     -1.796784     -1.245702
      3.58969      0.70065     14.14232         1.354785     -0.627185      1.815822
      8.74387      8.60107     10.60423         2.021246     -0.064835      0.799669
      0.81976      5.62440      9.82790         0.556184      0.050808     -2.870452
      1.27900      3.69752     14.35474         0.175709      0.059404      1.266913
      3.51203      5.20382     30.98010         0.492643      0.297169     -0.343523
      1.35927      7.60966      7.82316        -0.452459     -0.476050     -0.014678
      7.16564      7.43381     36.53080        -1.257848      0.659941     -0.535267
      9.39723      4.68907     12.60530         1.484007     -0.602099      1.204316
      7.71767      0.63718     34.24410         1.738819      1.504328     -0.689338
      8.04216      7.89278     14.00157        -1.105538     -0.289822     -0.270918
      6.48573      8.19973     11.96637        -0.707307     -0.378758      0.900796
      2.54915      3.51788     36.35090         0.327771     -1.600937     -0.401565
      5.42673      5.81122     13.97285        -1.560731      1.003977      0.390765
      0.08718      7.34730     12.75754         1.347834     -0.561481      0.081873
      4.18924      6.66920     11.09774         0.182600      0.026862     -0.430402
      3.30856      4.62025      9.30065         0.525518     -0.176822      1.028638
      5.31081      2.97807     31.38970        -0.655166     -0.521094     -0.674692
      1.15127      6.60792     32.66910        -0.883328      0.041734     -0.549875
      9.22844      0.79201      7.92859         0.251684      0.877632     -0.926007
      4.98769      7.76187     30.76380        -0.413864      0.727208     -0.807254
      6.18869      3.28733      8.75459        -0.978268      0.185575      1.455794
      2.63849      6.70349     13.71479         0.665083      1.243463     -2.723158
      6.62986      6.12475     32.28440        -0.480885     -0.112091      0.076609
     10.01670      1.33840     30.31500        -0.705147      0.166847     -1.056070
      1.25551      1.10730     13.27186        -0.795888      1.268688      0.094760
      5.10419      0.67505     33.02160         0.835349     -0.715567     -1.248550
      4.37608      5.30907     37.16160         2.197199      0.037450      0.801577
      7.39216      1.38986     30.61790        -1.900905      2.312153     -0.200089
      6.84575      2.89812     35.92650        -1.320505      2.650800     -0.086154
      5.44654      1.84666     12.71273        -0.247660     -0.571053      0.333765
      2.26640      8.68036     30.60300         0.180052     -0.423646     -0.430520
      5.12245      7.13084     34.61340         0.576280      0.473653      0.088042
      0.19229      2.86382     33.15000        -0.028806      0.130862     -0.879510
      0.00612      3.55845     34.45780        -0.374257      0.753165      0.698698
      4.04103      4.15784     34.03640        -0.168780      0.438779      0.066764
      4.98888      3.36586     33.05840        -0.020775      0.110238      0.882998
      0.17109      3.48029     38.95772        -0.108347      0.086916     -0.169129
      9.46827      8.42043     31.04310        -1.459217     -0.643676      0.459989
      8.59277      4.69016     35.82170         0.755637      0.910512     -1.014472
      9.45243      5.95623     35.10580        -0.637220     -0.617150      0.376202
      0.51442      4.70023     31.48260        -0.643723     -0.418932      0.116122
      9.74397      3.83187     30.55640        -0.224694      0.469218     -0.201326
      0.87929      1.23130     34.86120        -0.346573      0.831402     -0.169591
      2.41592      4.76674     35.03570        -0.426166     -0.708963      1.048451
      4.15156      3.18363     14.98272         0.789266     -0.504280      1.234484
      0.24224      8.12597     34.81100        -0.160398     -0.642695     -0.195776
      4.57591      1.17662     35.99400        -0.068170      0.330080     -0.420585
      2.17344      0.79611     35.45760         1.687885     -0.018159      0.120693
      6.38146      0.43184      7.70297        -0.854103      0.470290     -0.199108
      2.72609      1.53516     31.40620        -0.035433      1.382960      0.824444
      2.82597      2.08592     32.83380         0.112297      0.054979      0.616411
      7.84327      8.61104     10.89661        -1.299823     -0.194038      0.287363
      4.22792      2.13133     34.71530         0.408097     -0.586259      0.547791
      3.12995      4.34057     31.14830        -0.483089     -0.307436      0.158514
      3.52541      1.01157      9.70424         0.490185      2.159690      1.380969
      3.56491      8.28940      9.63487        -0.004587     -0.409382      0.396880
      2.11851      5.64241     33.83920        -0.655704      0.800972     -1.019671
      4.35246      4.61232     14.22320        -0.111080     -1.063252      0.117327
      9.33685      1.81148     10.96225         0.135441     -0.335532     -0.661623
      9.73554      3.18335     11.41902         0.609244     -0.310718     -1.294418
      8.86041      8.24493     34.41930         1.053180     -1.423038     -0.468402
      9.89100      3.59696     37.47349        -0.078627      0.210884     -0.041771
      4.67539      2.30321     11.18717        -0.568702      0.478125     -0.655314
      6.46224      2.84246     13.33840        -0.161477      0.091513      0.107972
      6.82408      3.72799     14.62535         0.042144     -0.438808      0.265636
      8.25343      5.75482      9.10365         0.943926      1.616021      1.727801
      7.29442      4.58806      8.88425         0.472079      0.282341     -0.518129
      3.44214      0.87127     15.10019         0.094052     -0.155200     -0.708206
      2.77479      0.95947     13.69857        -1.464781      0.217006     -0.803336
      3.78109      3.25831     10.13698         0.775159     -1.003870      0.215528
      9.22497      8.27762     11.41570        -0.301268      0.195124     -1.291524
      0.84994      6.39344      9.17694         0.112845     -0.811086      0.503901
      0.66047      6.02634     10.64193        -0.499775      0.993511      2.182911
      4.85612      0.51718      8.14431         0.597366      0.523073     -0.709779
      2.30871      3.72338     14.31101        -0.829317      0.025254      0.100329
      1.00738      3.73897     15.32766         0.637905      0.077334     -1.525255
      3.03818      5.58841     30.23180        -0.183178     -0.121307      0.093481
      2.00698      8.29999      8.02824        -0.170147      0.231745      0.139767
      7.93804      7.65920     36.04190         0.914816      0.374592     -0.682380
     10.07930      4.32781     13.25838        -0.806355      0.540142     -1.047104
      7.48884      6.89918     37.22300         0.310123     -0.949670      1.301036
      0.55091      8.04631      7.50000         0.392564      0.169207      0.111397
      8.58608      4.26157     12.90961        -0.584564      0.034341      0.153617
      8.39113      1.25744     33.82170        -0.981903     -0.828557      0.890543
      6.93234      0.79837     33.70290        -0.848631     -0.262590     -0.246032
      8.88945      7.92694     13.50334         0.455322      0.145788      0.902367
      5.78507      7.56127     11.70760         0.268921      0.235822     -0.158249
      2.96741      2.65252     35.99090        -0.503883      1.341351      0.746354
      8.07596      8.12619     14.92912         0.618967      0.252884      0.040918
      2.01821      3.24190     37.11730        -0.264433      0.094187     -0.194313
      5.51830      6.31917     14.80413         0.603421     -0.567860     -0.604936
      6.14181      5.20859     13.76888         1.099849     -0.289891      0.071753
      1.07563      7.22783     12.91969        -1.257248      0.517710     -0.037885
      3.93049      5.88126     10.54010         0.194439      0.498748      0.898005
      9.88383      6.44441     12.89083        -0.205383     -0.283477     -0.417769
      3.96866      6.55303     12.03340        -0.348322     -0.563253     -0.459842
      5.07656      4.65370     37.43529        -1.358851      0.946087     -0.591941
      2.41507      4.91622      9.49049        -1.327827      0.279059      0.152734
      3.57185      5.09758      8.53132         0.450889      0.253685     -1.040630
      5.16024      3.69180     30.74560         0.029347      0.037587      0.464838
      0.30073      6.88255     33.10030         0.418539     -0.256538      0.147636
      9.32062      0.50889      8.83270        -0.074950     -0.170670      0.937781
      1.36208      7.41572     32.18510         0.551135     -0.136649     -0.110263
      4.37159      2.57522     31.55260         1.091377      0.524836     -0.186010
      9.57977      1.70689      7.91710        -0.302960     -0.767142      0.072837
      5.12867      7.92825     29.80340         0.258245     -0.470369      0.650056
      5.34172      6.89619     31.04330         0.296954     -0.175543      0.101304
      6.79499      7.94514     12.88693        -0.061653      0.252417     -1.070148
      2.32948      6.18124     14.40469        -0.632109     -1.086477      2.196366
      7.30641      6.72808     31.98590         0.725349      0.246722     -0.178321
      3.07395      7.52349     13.98651        -0.100466      0.074734      0.510861
      6.50005      2.84791      7.99134         0.571199     -0.676386     -1.514249
      6.40972      6.45504     33.17410        -0.405893     -0.195760      0.014638
      9.03695      1.54409     30.10260         1.333041     -0.139788      1.104728
      0.32670      2.13939     30.64280        -0.382212     -0.198968      0.148176
      8.55941      7.76631     30.06820        -0.318225     -0.361852     -0.235587
      0.87826      1.42651     12.41850         0.363070     -0.286471      0.047824
      5.28799      0.23221     32.14640        -0.472572      0.382425      1.108343
      1.09220      1.90554     13.84061         0.113298     -0.539528     -0.510226
      4.99200      8.68958     33.62510        -0.282077     -0.022238      0.054434
      3.62984      4.79064     36.87080        -0.432512     -0.846652     -0.174356
      5.46672      2.66996      9.05502         0.556269      0.846261      0.129761
      7.07550      0.51798     30.83640         0.095926     -0.657596      0.218780
      6.58196      2.03276     30.84110         1.492731     -1.156130     -0.257310
      7.21511      2.09730     35.60760         0.380244     -1.137472     -0.936442
      6.32017      3.36546     35.19960         0.896827     -1.318367      1.095435
      4.73260      1.53362     13.36246         0.919162      0.207114     -0.931925
      5.85708      1.01669     12.34901        -0.180224      0.068941      0.274960
      2.97371      8.04610     30.33630        -0.270279      0.564418      0.515560
      1.60716      8.67624     29.87920         0.268973      0.096892      0.424483
      5.58974      7.35277     35.44660        -0.188300     -0.501159     -0.371471
      4.41864      6.50914     34.84600        -0.224722     -0.027148      0.063811
 -----------------------------------------------------------------------------------
    total drift:                                0.006264      0.014478      1.487332


--------------------------------------------------------------------------------------------------------



  FREE ENERGIE OF THE ION-ELECTRON SYSTEM (eV)
  ---------------------------------------------------
  free  energy   TOTEN  =     -1807.78707449 eV

  energy  without entropy=    -1807.53482291  energy(sigma->0) =    -1807.66094870
 


--------------------------------------------------------------------------------------------------------


    POTLOK:  cpu time     12.2112: real time     12.2346


--------------------------------------------------------------------------------------------------------


 writing wavefunctions
     LOOP+:  cpu time   2399.5264: real time   2403.3050
 vacuum level on the upper side and lower side of the slab         4.993         6.618
    4ORBIT:  cpu time      0.0000: real time      0.0000

 total amount of memory used by VASP MPI-rank0 10655292. kBytes
=======================================================================

   base      :      30000. kBytes
   nonlr-proj:     190052. kBytes
   fftplans  :     468582. kBytes
   grid      :    1221211. kBytes
   one-center:       3825. kBytes
   wavefun   :    8741622. kBytes
 
  
  
 General timing and accounting informations for this job:
 ========================================================
  
                  Total CPU time used (sec):     2514.876
                            User time (sec):     2444.383
                          System time (sec):       70.493
                         Elapsed time (sec):     2519.114
  
                   Maximum memory used (kb):    11854692.
                   Average memory used (kb):          N/A
  
                          Minor page faults:     16320067
                          Major page faults:           44
                 Voluntary context switches:        49477
