246
Lattice="10.140377178 0.0 0.0 0.0 8.78182424 0.0 0.0 0.0 30.131127158" Properties=species:S:1:pos:R:3:initial_charges:R:1:forces:R:3 NELECT0=1456.0 NELECT=1459.9295571614553 U_vs_SHE=-1.3073940874154237 stress="0.00631268729595483 -0.00045521198507804373 0.00038515728664913 -0.00045521198507804373 0.0032716929781328643 -0.00042827363169073147 0.00038515728664913 -0.00042827363169073147 -0.004001512640222394" free_energy=-1801.05433912 energy=-1812.557441702494 pbc="T T T"
Cu       7.01495000       1.04875000       9.67224000      -0.04586700       0.32601800       0.65635900       0.29231500
Cu       9.40692000       1.09900000      10.02230000      -0.08630800       0.42753200       0.21999400      -0.65534900
Cu       1.85312000       1.10239000      10.03770000      -0.11422400       0.25323400       0.17584600      -0.62849300
Cu       4.71146000       1.05583000      10.04350000      -0.11693200      -1.24283400       0.40590600      -0.53162200
Cu       8.21255000       3.33776000       9.88346000      -0.07051200       0.40936800       0.11555200      -0.05945000
Cu       0.63961000       3.32290000       9.90300000      -0.11459300      -0.13890500      -0.03983400       0.39245400
Cu       3.22852000       3.28437000       9.92187000      -0.08266200      -0.10413300      -0.06863400       0.25623300
Cu       5.83975000       3.29489000      10.03600000      -0.12988600      -0.64064400       0.12799700      -0.41599900
Cu       9.41439000       5.56780000       9.95239000      -0.08214800       0.18601600      -0.29179800      -0.55503200
Cu       1.77969000       5.56352000       9.87424000      -0.09223600       0.57322800      -0.03700200       0.26978300
Cu       4.46069000       5.51264000      10.00790000      -0.10054900      -0.22859100       0.19134300      -0.26971800
Cu       6.97663000       5.57604000       9.75922000      -0.08321700      -0.05175100      -0.45931500       0.41065900
Cu       0.58819000       7.73557000       9.82403000      -0.06090800       0.17506800       0.02630400       0.36949200
Cu       3.27776000       7.88339000       9.81483000      -0.09480400      -0.32168300      -0.80620300       0.19187200
Cu       5.85084000       7.69137000       9.73198000      -0.10607300      -0.86814000      -0.19539600       0.20076000
Cu       8.23174000       7.73553000       9.81049000      -0.08825600       0.44548400      -0.31992000       0.25881400
Cu       5.73308000       1.79764000      12.00280000      -0.01699900      -0.06972200       0.44011700       0.31699700
Cu       8.21562000       2.00750000      11.94810000       0.00690100      -0.11746700      -0.74727000       0.08797000
Cu       0.56398000       1.79305000      11.92630000      -0.00311400       0.33557600       0.43421000       0.58756400
Cu       3.12416000       1.80194000      12.00210000       0.00666500       0.33274300       0.08964200      -0.20283800
Cu       6.99017000       4.08641000      11.99730000      -0.00485900      -0.30171600       0.05791500      -0.11732700
Cu       9.52784000       4.09004000      11.96670000      -0.00122000      -0.09895100      -0.46548700      -0.09085300
Cu       1.89768000       4.05500000      11.95320000       0.00986600      -0.08091200      -0.16211400      -0.12583300
Cu       4.38969000       4.02784000      11.98170000      -0.00308800       0.35549000      -0.04154100       0.01164900
Cu       8.19298000       6.19533000      12.00070000      -0.00230800      -0.01654100       0.60918700      -0.29086200
Cu       0.48310000       6.21882000      11.91020000       0.00557700       0.89648100       0.53702300       0.36075200
Cu       3.10533000       6.22948000      12.03010000      -0.00546200       0.19277200      -0.29757100      -0.64604700
Cu       5.76684000       6.27165000      11.93090000      -0.00236200      -0.36079100      -0.13317800       0.06918100
Cu       9.42566000       8.48356000      12.01380000       0.00212700       0.28232400      -0.48295000      -0.28764800
Cu       1.95115000       8.34804000      11.94580000      -0.00302400      -0.67582600       0.18127900      -0.04424300
Cu       4.40272000       8.32284000      11.94780000       0.01005600       0.44142700       0.38150200       0.09718300
Cu       6.96872000       8.50358000      11.79630000       0.02065800      -0.03326600      -0.20905800       0.59587900
Cu       5.70396000       0.36591000      14.03060000      -0.01395200       0.02436400      -0.15191300      -0.07965700
Cu       8.23906000       0.36591000      14.03060000      -0.01009000      -0.20039400       0.11223700      -0.04082900
Cu       0.63377000       0.36591000      14.03060000       0.01019200       0.07808900      -0.02555600      -0.03974600
Cu       3.16887000       0.36591000      14.03060000      -0.03417100       0.01628400      -0.08196000       0.05200400
Cu       6.97151000       2.56137000      14.03060000      -0.01765700      -0.03452300       0.02388100       0.17017700
Cu       9.50660000       2.56137000      14.03060000      -0.01339300       0.04216800       0.00312300       0.00046800
Cu       1.90132000       2.56137000      14.03060000      -0.01762100      -0.11672000       0.01180500      -0.02493100
Cu       4.43642000       2.56137000      14.03060000      -0.01696000      -0.00797100      -0.03048900       0.07417000
Cu       8.23906000       4.75682000      14.03060000      -0.00435800       0.05135100      -0.06234100       0.21501600
Cu       0.63377000       4.75682000      14.03060000      -0.01531500       0.07871800       0.03671700       0.00872000
Cu       3.16887000       4.75682000      14.03060000      -0.04045500      -0.04317400      -0.09370700       0.18549400
Cu       5.70396000       4.75682000      14.03060000       0.01521800      -0.06314800       0.05221600      -0.00931500
Cu       9.50660000       6.95228000      14.03060000      -0.03702700      -0.00293000       0.02584900       0.04465200
Cu       1.90132000       6.95228000      14.03060000      -0.01090000      -0.20622600      -0.02091500       0.08512600
Cu       4.43642000       6.95228000      14.03060000      -0.01231100       0.06608500      -0.04910200       0.06566800
Cu       6.97151000       6.95228000      14.03060000       0.01569300      -0.04230800       0.17022700      -0.09773400
Cu       6.97151000       1.09773000      16.10050000      -0.01151500       0.03046300       0.00528700       0.11517900
Cu       9.50660000       1.09773000      16.10050000      -0.00985700       0.05123100      -0.02170100       0.00839700
Cu       1.90132000       1.09773000      16.10050000      -0.01884600       0.05150100       0.06553000      -0.05210100
Cu       4.43642000       1.09773000      16.10050000      -0.01844300       0.16267600       0.01380800       0.02872400
Cu       8.23906000       3.29318000      16.10050000       0.01202800      -0.08515200      -0.10600100      -0.18570100
Cu       0.63377000       3.29318000      16.10050000      -0.04060100       0.16996300       0.00137800      -0.19355300
Cu       3.16887000       3.29318000      16.10050000      -0.01840400      -0.10421000       0.05097200       0.22230900
Cu       5.70396000       3.29318000      16.10050000      -0.01138600      -0.18474700       0.01350900      -0.00755500
Cu       9.50660000       5.48864000      16.10050000      -0.03731500       0.06266900      -0.03799000      -0.12387300
Cu       1.90132000       5.48864000      16.10050000       0.01672900      -0.01371700       0.05543300       0.34958700
Cu       4.43642000       5.48864000      16.10050000      -0.01491300      -0.01440300       0.13454700       0.13031800
Cu       6.97151000       5.48864000      16.10050000      -0.01198200      -0.06735600       0.17282300      -0.06542100
Cu       0.63377000       7.68410000      16.10050000      -0.01312100      -0.14834400      -0.04878600       0.08700800
Cu       3.16887000       7.68410000      16.10050000       0.00954900       0.15920300      -0.00040100       0.09312100
Cu       5.70396000       7.68410000      16.10050000      -0.02444900       0.00406900      -0.04743600       0.10628800
Cu       8.23906000       7.68410000      16.10050000      -0.03940600       0.07493900       0.16475700      -0.18271600
Cu       5.85379000       1.93470000      18.23000000       0.00125100      -0.54807600      -0.50163100       0.00151600
Cu       8.31899000       1.81407000      18.19350000       0.00897400      -0.43047100       0.34530700      -0.10065200
Cu       0.65934000       1.85486000      18.16570000      -0.00470000       0.50427500      -0.41641700      -0.21892800
Cu       3.28236000       1.78541000      18.15560000      -0.00335800      -0.24401900       0.57006800       0.07123500
Cu       6.94330000       4.06056000      18.08830000       0.00109000       0.33009300       0.30921300       0.57721400
Cu       9.53274000       3.93182000      18.09470000       0.00517200      -0.68113200       0.78391900       0.47296300
Cu       1.75566000       4.11011000      18.27300000       0.00347700       0.98704700      -0.08994500      -0.36620100
Cu       4.34478000       4.15356000      18.18330000       0.00714700       0.06830700      -0.66110500       0.32259200
Cu       8.28711000       6.29270000      18.10650000      -0.00415500      -0.62591000      -0.63962700       0.41942300
Cu       0.47559000       6.21499000      18.24880000       0.00081200       0.98174800       0.23919300      -0.12626200
Cu       3.13877000       6.30465000      18.26340000       0.01258000      -0.07795600      -0.24624300      -0.01530000
Cu       5.69107000       6.20933000      18.26270000       0.00466600       0.18078200       0.28967400      -0.49816500
Cu       9.44883000       8.47812000      18.25490000       0.00535300       0.73216800      -0.22558200      -0.75404200
Cu       1.88922000       8.36740000      18.09810000      -0.00043700      -0.14412200       0.30846600       0.43188200
Cu       4.54714000       8.45916000      18.21860000      -0.00223200      -0.38286400      -0.17282300      -0.36435700
Cu       7.02274000       8.35406000      18.16980000       0.00619000      -0.34428400       0.46591400       0.02245400
Cu       5.76967000       0.31472000      20.19670000      -0.08425100       0.01537200       0.51740500       0.11817100
Cu       8.26793000       0.45900000      20.19950000      -0.03643300      -0.33179100       0.09155200       0.31425800
Cu       0.65380000       0.42134000      20.19560000      -0.03323100       0.02904600      -0.00537300       0.03679300
Cu       3.08573000       0.38176000      20.12360000      -0.06113800       0.72860100      -0.09170700       0.24825500
Cu       7.15295000       2.78887000      20.22990000      -0.04416500      -0.22235100      -0.57030900      -0.08217800
Cu       9.71471000       2.64441000      20.19190000      -0.03845700      -0.70170800       0.09558800       0.13424500
Cu       2.00452000       2.58072000      20.16790000      -0.08835500       0.26448500       0.14034100       0.13331900
Cu       4.63194000       2.62565000      20.31620000      -0.07037200      -0.46589900      -0.12831000      -0.47826500
Cu       8.30631000       4.87373000      20.21310000      -0.08386000       0.22516400      -0.11881500      -0.20417700
Cu       0.62901000       4.84824000      20.34140000      -0.09844100       0.07924100       0.07732000      -0.03277000
Cu       3.12649000       4.76970000      20.37750000      -0.07969200       0.28323300       0.21245400      -0.41119000
Cu       5.69904000       4.86688000      20.28350000      -0.07205400       0.17188700      -0.46929500      -0.06798200
Cu       9.50073000       7.12382000      20.27590000      -0.09779800       0.15826500      -0.61684100       0.14633800
Cu       1.87703000       7.02159000      20.38800000      -0.09917400       0.10385000      -0.28528700      -0.52498100
Cu       4.51672000       6.99769000      20.30000000      -0.08423200      -0.54656700      -0.02522200      -0.17481500
Cu       7.06912000       6.92518000      20.29220000      -0.07856400      -0.29929500       0.46299500      -0.19834700
O        0.23435000       2.70370000      26.62910000      -1.36996400       0.09637500      -0.87761000       0.22718700
O        4.67729000       3.41807000      26.54350000      -1.36542500       0.46758000       0.20507600      -0.43402900
O        8.62924000       7.85827000      23.57010000      -1.29223400       1.64725900       0.49598900       0.27361600
O        9.40165000       4.98934000      27.87530000      -1.34025500      -0.24212600      -0.56047100       0.49939600
O       10.04450000       3.92392000      24.00640000      -1.30978100       0.85778600       0.53655000       0.55845500
O        2.81352000       5.37414000      26.96680000      -1.36266700       1.35239200      -0.10427900       0.28257100
O        9.63874000       7.57098000      26.95650000      -1.32182000      -1.00462400       1.81225100       1.02144400
O        1.28134000       0.51486000      27.89640000      -1.39466800      -1.47173200      -0.78302300       0.10276500
O        5.55367000       0.95106000       0.11160000      -1.28395600      -0.14618900      -1.28485600       0.69229500
O        2.84044000       2.40814000      24.47540000      -1.28839200      -0.48051700      -1.82416600      -1.38813400
O        3.91072000       1.37499000      27.86140000      -1.36020600      -0.67386400       0.50955100       0.02310500
O        3.32314000       0.29301000       1.68765000      -1.37386800      -0.48828200      -2.28188300      -1.96756900
O        3.91002000       3.68823000       6.77438000      -1.33376700      -0.76017000       1.69146900      -1.81028200
O       10.00385000       2.48703000       3.29336000      -1.26285800      -0.70367400       0.67100100       1.64320400
O        0.26824000       3.07597000       0.50287000      -1.28088000       0.57565700       0.13074000      -0.46808900
O        4.22436000       2.37111000       2.84709000      -1.37186100      -0.27597300       0.54674800       0.38582500
O        7.06616000       3.56221000       6.25557000      -1.34578300       0.23868400       0.23810100      -0.77518200
O        7.97661000       5.16747000       0.99377000      -1.34540100      -1.14447800      -1.47939400      -1.36525500
O        3.58969000       0.70065000       6.68572000      -1.33482900       1.22567200      -0.49928400       0.97963200
O        8.74387000       8.60107000       3.14763000      -1.34112500       2.06427200      -0.04111400       0.57819700
O        0.81976000       5.62440000       2.37130000      -1.31750300       0.37510900       0.00755000      -3.01056000
O        1.27900000       3.69752000       6.89814000      -1.32935100       0.16560300      -0.01081800       0.39905800
O        3.51203000       5.20382000      23.52350000      -1.30000300       0.43436500       0.23024200       0.27614200
O        1.35927000       7.60966000       0.36656000      -1.32826700      -0.49924400      -0.65385400       0.05659200
O        7.16564000       7.43381000      29.07420000      -1.28171300      -1.31579200       0.76528900      -0.57557700
O        9.39723000       4.68907000       5.14870000      -1.35846700       1.45476800      -0.71754300       0.66571700
O        7.71767000       0.63718000      26.78750000      -1.28552900       1.79606300       1.56792400      -0.49862300
O        8.04216000       7.89278000       6.54497000      -1.36221400      -0.94684200      -0.26798700      -1.20693700
O        6.48573000       8.19973000       4.50977000      -1.35852700      -0.76036000      -0.43247300       0.34132200
O        2.54915000       3.51788000      28.89430000      -1.32036800       0.30052000      -1.42005300      -0.22145000
O        5.42673000       5.81122000       6.51625000      -1.38691200      -1.44788700       0.96455800      -0.27190600
O        0.08718000       7.34730000       5.30094000      -1.32071400       1.36564500      -0.61573200      -0.46238200
O        4.18924000       6.66920000       3.64114000      -1.36769600       0.10505400      -0.01203100      -0.77379300
O        3.30856000       4.62025000       1.84405000      -1.38815100      -0.28317100      -0.65589900       2.02245400
O        5.31081000       2.97807000      23.93310000      -1.30722100      -0.86300500      -0.45329700      -0.05489900
O        1.15127000       6.60792000      25.21250000      -1.31072600      -0.95756900       0.05767500      -0.06559000
O        9.22844000       0.79201000       0.47199000      -1.36312200      -0.40560000      -0.40818500      -0.84434500
O        4.98769000       7.76187000      23.30720000      -1.36170000      -0.26453300       0.67542400      -0.05272400
O        6.18869000       3.28733000       1.29799000      -1.37724600      -1.16059000       0.34046200       1.28703500
O        2.63849000       6.70349000       6.25819000      -1.34093500       0.57537500       1.30445600      -3.27042800
O        6.62986000       6.12475000      24.82780000      -1.31658700      -0.43940900      -0.19206100       0.55985300
O       10.01670000       1.33840000      22.85840000      -1.33278700      -0.70411700       0.16068500      -0.38769100
O        1.25551000       1.10730000       5.81526000      -1.30961700      -1.02081100       1.20612300      -0.53080400
O        5.10419000       0.67505000      25.56500000      -1.33057600       0.88390700      -0.77651400      -0.83202100
O        4.37608000       5.30907000      29.70500000      -1.31276200       1.95124300       0.32680200       0.78487000
O        7.39216000       1.38986000      23.16130000      -1.30199300      -2.03134800       2.38717300       0.41741200
O        6.84575000       2.89812000      28.46990000      -1.32441900      -1.12432600       2.74769500      -0.11755800
O        5.44654000       1.84666000       5.25613000      -1.34468500      -0.20282400      -0.66463000      -0.36384200
O        2.26640000       8.68036000      23.14640000      -1.32465200       0.20828600      -0.35968900       0.26588000
O        5.12245000       7.13084000      27.15680000      -1.34091700       0.50157200       0.35413400       0.31880200
H        0.19229000       2.86382000      25.69340000       0.67293500      -0.03537700       0.16448400      -1.11840100
H        0.00612000       3.55845000      27.00120000       0.68981600      -0.37043100       0.71829400       0.61962500
H        4.04103000       4.15784000      26.57980000       0.68138000      -0.11415800       0.35840500      -0.04231800
H        4.98888000       3.36586000      25.60180000       0.68904200       0.04356000       0.05392000       0.44949600
H        0.17109000       3.48029000       1.36999000       0.68590100      -0.23888900       0.14618700       0.34290700
H        9.46827000       8.42043000      23.58650000       0.63942400      -1.45361500      -0.58224100       0.28874700
H        8.59277000       4.69016000      28.36510000       0.64971500       0.78629400       1.00977800      -0.84482400
H        9.45243000       5.95623000      27.64920000       0.67552700      -0.63581100      -0.63029000       0.36868100
H        0.51442000       4.70023000      24.02600000       0.64922000      -0.68749900      -0.51061300      -0.09877100
H        9.74397000       3.83187000      23.09980000       0.62905000      -0.19966500       0.44943700      -0.42721300
H        0.87929000       1.23130000      27.40460000       0.68732500      -0.35752400       0.85183200      -0.24679600
H        2.41592000       4.76674000      27.57910000       0.67460000      -0.43457700      -0.64333200       0.93381100
H        4.15156000       3.18363000       7.52612000       0.62960200       0.74533700      -0.46668800       1.55452600
H        0.24224000       8.12597000      27.35440000       0.67265400      -0.23538700      -0.70422700      -0.26144000
H        4.57591000       1.17662000      28.53740000       0.67274900       0.27424700       0.19557300       0.11103200
H        2.17344000       0.79611000      28.00100000       0.69864600       1.79273800      -0.00815900       0.06311200
H        6.38146000       0.43184000       0.24637000       0.62292600      -0.81138200       0.39091500      -0.39035900
H        2.72609000       1.53516000      23.94960000       0.65844900      -0.10169900       1.19414100       0.55198600
H        2.82597000       2.08592000      25.37720000       0.64791500       0.12118700       0.02318000       0.46774700
H        7.84327000       8.61104000       3.44001000       0.68201100      -1.40160800      -0.22171500       0.45467700
H        4.22792000       2.13133000      27.25870000       0.68583600       0.31679700      -0.68854600       0.48259700
H        3.12995000       4.34057000      23.69170000       0.63889000      -0.44163500      -0.19847500      -0.07351300
H        3.52541000       1.01157000       2.24764000       0.72715700       0.53444000       2.22163700       1.47583100
H        3.56491000       8.28940000       2.17827000       0.64678700       0.00727600      -0.46440900       0.43311100
H        2.11851000       5.64241000      26.38260000       0.69009400      -0.71975100       0.88355400      -1.20513300
H        4.35246000       4.61232000       6.76660000       0.66328900      -0.17891600      -1.17092000       0.32474300
H        9.33685000       1.81148000       3.50565000       0.61314500       0.16225200      -0.36472100      -0.66010900
H        9.73554000       3.18335000       3.96242000       0.62463500       0.60971800      -0.20438100      -0.95912600
H        8.86041000       8.24493000      26.96270000       0.64170000       1.03331200      -1.40285100      -0.49261600
H        9.89100000       3.59696000      30.01689000       0.63029700      -0.10344300       0.52783300       0.01088000
H        4.67539000       2.30321000       3.73057000       0.68303700      -0.44408300       0.38463200      -0.27050600
H        6.46224000       2.84246000       5.88180000       0.69497400       0.06034800       0.36538600       0.39700900
H        6.82408000       3.72799000       7.16875000       0.59873400       0.11063000      -0.43368600       0.58476700
H        8.25343000       5.75482000       1.64705000       0.64066400       0.93445400       1.47955200       1.77472200
H        7.29442000       4.58806000       1.42765000       0.68483900       0.40979400       0.26365200      -0.55883600
H        3.44214000       0.87127000       7.64359000       0.59169300       0.15140800      -0.18676100      -0.27004200
H        2.77479000       0.95947000       6.24197000       0.69264800      -1.09382400       0.15840600      -0.50027900
H        3.78109000       3.25831000       2.68038000       0.68704700       0.75963000      -0.93073800       0.24968400
H        9.22497000       8.27762000       3.95910000       0.64008900      -0.24748400       0.12565400      -1.06383400
H        0.84994000       6.39344000       1.72034000       0.65606100       0.19043800      -0.75352100       0.49072100
H        0.66047000       6.02634000       3.18533000       0.65627400      -0.51678200       0.96919300       2.32799600
H        4.85612000       0.51718000       0.68771000       0.64748300       0.66893100       0.50725100      -0.62930900
H        2.30871000       3.72338000       6.85441000       0.67428700      -0.88850200       0.04130200       0.24517200
H        1.00738000       3.73897000       7.87106000       0.54850100       0.54563600       0.08053000      -1.04228200
H        3.03818000       5.58841000      22.77520000       0.60554800      -0.14465500      -0.14895500      -0.19503100
H        2.00698000       8.29999000       0.57164000       0.66618600      -0.25468100       0.16952500       0.12358900
H        7.93804000       7.65920000      28.58530000       0.63696200       0.90431700       0.45615400      -0.63111700
H       10.07930000       4.32781000       5.80178000       0.64901800      -0.55729000       0.47984800      -0.67372100
H        7.48884000       6.89918000      29.76640000       0.64343500       0.41334700      -1.39249200       1.47340400
H        0.55091000       8.04631000       0.04340000       0.65819500       0.47752200       0.36247800       0.12957100
H        8.58608000       4.26157000       5.45301000       0.70322900      -0.73894900       0.01473100       0.39478900
H        8.39113000       1.25744000      26.36510000       0.61826000      -1.00606600      -0.87286200       0.78385400
H        6.93234000       0.79837000      26.24630000       0.67860800      -0.91425300      -0.28203600      -0.38274300
H        8.88945000       7.92694000       6.04674000       0.68558800       0.09566400       0.19012300       1.23708800
H        5.78507000       7.56127000       4.25100000       0.67118200       0.33415000       0.29426200       0.00822800
H        2.96741000       2.65252000      28.53430000       0.64897000      -0.32907200       1.13853900       0.64788500
H        8.07596000       8.12619000       7.47252000       0.61809700       0.54561200       0.23989200       0.46977700
H        2.01821000       3.24190000      29.66070000       0.65289600      -0.22249100       0.08840500      -0.16254700
H        5.51830000       6.31917000       7.34753000       0.66191300       0.59643000      -0.51434600      -0.16451500
H        6.14181000       5.20859000       6.31228000       0.68728600       0.96670600      -0.21294000       0.29382700
H        1.07563000       7.22783000       5.46309000       0.64607800      -1.06714500       0.47565600       0.20862600
H        3.93049000       5.88126000       3.08350000       0.65425200       0.22041400       0.55471700       0.97149400
H        9.88383000       6.44441000       5.43423000       0.66521000      -0.20905400      -0.21065000      -0.21319600
H        3.96866000       6.55303000       4.57680000       0.69440300      -0.35787000      -0.56184500      -0.17885400
H        5.07656000       4.65370000      29.97869000       0.63467400      -0.95613300       0.70557500      -0.37693000
H        2.41507000       4.91622000       2.03389000       0.69052300      -1.01308300       0.20554700       0.28985400
H        3.57185000       5.09758000       1.07472000       0.69169100       0.99146000       0.72795700      -1.68199100
H        5.16024000       3.69180000      23.28900000       0.62358900       0.02737300       0.02917700       0.22411300
H        0.30073000       6.88255000      25.64370000       0.66509300       0.55085600      -0.32731500      -0.08617200
H        9.32062000       0.50889000       1.37610000       0.65357500      -0.14784500      -0.19873300       0.79044900
H        1.36208000       7.41572000      24.72850000       0.62837200       0.59878500      -0.10326400      -0.35603200
H        4.37159000       2.57522000      24.09600000       0.67308800       1.24206100       0.59098400      -0.38390100
H        9.57977000       1.70689000       0.46050000       0.67598700       0.20368400      -0.28725300       0.10427400
H        5.12867000       7.92825000      22.34680000       0.59542900       0.24830700      -0.47060500       0.33390500
H        5.34172000       6.89619000      23.58670000       0.70212800       0.13804200       0.02275600      -0.20456700
H        6.79499000       7.94514000       5.43033000       0.68446700       0.18889100       0.21614700      -0.57472100
H        2.32948000       6.18124000       6.94809000       0.65094000      -0.60516600      -1.08415400       2.45803200
H        7.30641000       6.72808000      24.52930000       0.64608800       0.77356500       0.31413000      -0.37668200
H        3.07395000       7.52349000       6.52991000       0.67354800      -0.09383500       0.07057600       0.74030900
H        6.50005000       2.84791000       0.53474000       0.70867000       0.69422400      -0.71953400      -1.65477600
H        6.40972000       6.45504000      25.71750000       0.65948900      -0.32555200      -0.20271000      -0.18726300
H        9.03695000       1.54409000      22.64600000       0.66637600       1.43086800      -0.11026400       0.87511900
H        0.32670000       2.13939000      23.18620000       0.63782300      -0.43118400      -0.30044000      -0.09383300
H        8.55941000       7.76631000      22.61160000       0.59439500      -0.32435300      -0.40636300      -0.48995700
H        0.87826000       1.42651000       4.96190000       0.65263500       0.46672900      -0.35560400       0.40177300
H        5.28799000       0.23221000      24.68980000       0.64910700      -0.48244500       0.27141100       0.80129300
H        1.09220000       1.90554000       6.38401000       0.64437900       0.13138900      -0.34907000      -0.19697700
H        4.99200000       8.68958000      26.16850000       0.66878500      -0.27495600       0.12556800      -0.11343100
H        3.62984000       4.79064000      29.41420000       0.67481100      -0.52317300      -0.99314100      -0.65380600
H        5.46672000       2.66996000       1.59842000       0.65878100       0.64484800       0.87668800       0.25940300
H        7.07550000       0.51798000      23.37980000       0.62417200       0.07791700      -0.64079600       0.04356300
H        6.58196000       2.03276000      23.38450000       0.64136400       1.66611600      -1.31225600      -0.49663700
H        7.21511000       2.09730000      28.15100000       0.67725500       0.32944900      -1.21785000      -0.93644700
H        6.32017000       3.36546000      27.74300000       0.63354800       0.85485400      -1.31012000       1.06195100
H        4.73260000       1.53362000       5.90586000       0.68179500       0.62141000       0.08062700      -0.52802000