 vasp.6.4.3 19Mar24 (build Sep  4 2024 12:23:58) complex                         
 executed on              LinuxNV date 2025.10.06  11:43:53
 running    4 mpi-ranks, with    1 threads/rank, on    1 nodes
 distrk:  each k-point on    2 cores,    2 groups
 distr:  one band on NCORE=   1 cores,    2 groups
 OpenACC runtime initialized ...    4 GPUs detected


--------------------------------------------------------------------------------------------------------


 INCAR:
   ENCUT = 800.000000
   SIGMA = 0.100000
   EDIFF = 1.00e-07
   ALGO = fast
   METAGGA = R2SCAN
   PREC = Accurate
   IBRION = -1
   ICHARG = 2
   ISMEAR = 0
   ISTART = 0
   KPAR = 2
   NELM = 160
   NPAR = 2
   NCORE = 1
   LAECHG = .TRUE.
   LASPH = .TRUE.
   LVHAR = .TRUE.
   LMIXTAU = .TRUE.
   LREAL = Auto

 POTCAR:    PAW_PBE Cu 22Jun2005                  
 POTCAR:    PAW_PBE O_h 06Feb2004                 
 POTCAR:    PAW_PBE H_h 06Feb2004                 
 POTCAR:    PAW_PBE Cu 22Jun2005                  
   VRHFIN =Cu: d10 p1                                                                               
   LEXCH  = PE                                                                                      
   EATOM  =  1390.9808 eV,  102.2342 Ry                                                             
                                                                                                    
   TITEL  = PAW_PBE Cu 22Jun2005                                                                    
   LULTRA =        F    use ultrasoft PP ?                                                          
   IUNSCR =        1    unscreen: 0-lin 1-nonlin 2-no                                               
   RPACOR =    2.000    partial core radius                                                         
   POMASS =   63.546; ZVAL   =   11.000    mass and valenz                                          
   RCORE  =    2.300    outmost cutoff radius                                                       
   RWIGS  =    2.200; RWIGS  =    1.164    wigner-seitz radius (au A)                               
   ENMAX  =  295.446; ENMIN  =  221.585 eV                                                          
   ICORE  =        3    local potential                                                             
   LCOR   =        T    correct aug charges                                                         
   LPAW   =        T    paw PP                                                                      
   EAUG   =  586.980                                                                                
   DEXC   =    0.000                                                                                
   RMAX   =    2.344    core radius for proj-oper                                                   
   RAUG   =    1.300    factor for augmentation sphere                                              
   RDEP   =    2.302    radius for radial grids                                                     
   RDEPT  =    1.771    core radius for aug-charge                                                  
                                                                                                    
   Atomic configuration                                                                             
    9 entries                                                                                       
     n  l   j            E        occ.                                                              
     1  0  0.50     -8850.2468   2.0000                                                             
     2  0  0.50     -1062.3498   2.0000                                                             
     2  1  1.50      -916.8226   6.0000                                                             
     3  0  0.50      -114.6929   2.0000                                                             
     3  1  1.50       -72.1325   6.0000                                                             
     3  2  2.50        -5.0394  10.0000                                                             
     4  0  0.50        -4.6097   1.0000                                                             
     4  1  0.50        -4.0817   0.0000                                                             
     4  3  2.50        -1.3606   0.0000                                                             
   Description                                                                                      
     l       E           TYP  RCUT    TYP  RCUT                                                     
     2     -5.0393973     23  2.200                                                                 
     2     10.8846608     23  2.200                                                                 
     0     -4.6097109     23  2.200                                                                 
     0      8.2520465     23  2.200                                                                 
     1     -2.7211652     23  2.200                                                                 
     1     21.7055443     23  2.200                                                                 
     3      2.7211652     23  2.300                                                                 
  local pseudopotential read in
  partial core-charges read in
  partial kinetic energy density read in
  atomic valenz-charges read in
  non local Contribution for L=            2  read in
    real space projection operators read in
  non local Contribution for L=            2  read in
    real space projection operators read in
  non local Contribution for L=            0  read in
    real space projection operators read in
  non local Contribution for L=            0  read in
    real space projection operators read in
  non local Contribution for L=            1  read in
    real space projection operators read in
  non local Contribution for L=            1  read in
    real space projection operators read in
    PAW grid and wavefunctions read in
 
   number of l-projection  operators is LMAX  =            6
   number of lm-projection operators is LMMAX =           18
 
 POTCAR:    PAW_PBE O_h 06Feb2004                 
   VRHFIN =O: s2p4                                                                                  
   LEXCH  = PE                                                                                      
   EATOM  =   432.3788 eV,   31.7789 Ry                                                             
                                                                                                    
   TITEL  = PAW_PBE O_h 06Feb2004                                                                   
   LULTRA =        F    use ultrasoft PP ?                                                          
   IUNSCR =        1    unscreen: 0-lin 1-nonlin 2-no                                               
   RPACOR =    0.800    partial core radius                                                         
   POMASS =   16.000; ZVAL   =    6.000    mass and valenz                                          
   RCORE  =    1.100    outmost cutoff radius                                                       
   RWIGS  =    1.400; RWIGS  =    0.741    wigner-seitz radius (au A)                               
   ENMAX  =  700.000; ENMIN  =  500.000 eV                                                          
   ICORE  =        2    local potential                                                             
   LCOR   =        T    correct aug charges                                                         
   LPAW   =        T    paw PP                                                                      
   EAUG   =  888.804                                                                                
   DEXC   =    0.000                                                                                
   RMAX   =    1.128    core radius for proj-oper                                                   
   RAUG   =    1.300    factor for augmentation sphere                                              
   RDEP   =    1.125    radius for radial grids                                                     
   RDEPT  =    1.088    core radius for aug-charge                                                  
                                                                                                    
   Atomic configuration                                                                             
    4 entries                                                                                       
     n  l   j            E        occ.                                                              
     1  0  0.50      -514.6923   2.0000                                                             
     2  0  0.50       -23.9615   2.0000                                                             
     2  1  0.50        -9.0305   4.0000                                                             
     3  2  1.50        -9.5241   0.0000                                                             
   Description                                                                                      
     l       E           TYP  RCUT    TYP  RCUT                                                     
     0    -23.9615319     23  1.100                                                                 
     0    -25.3221145     23  1.100                                                                 
     1     -9.0304911     23  1.100                                                                 
     1     -5.4802209     23  1.100                                                                 
     2     -9.5240782      7  1.100                                                                 
  local pseudopotential read in
  partial core-charges read in
  partial kinetic energy density read in
  atomic valenz-charges read in
  non local Contribution for L=            0  read in
    real space projection operators read in
  non local Contribution for L=            0  read in
    real space projection operators read in
  non local Contribution for L=            1  read in
    real space projection operators read in
  non local Contribution for L=            1  read in
    real space projection operators read in
    PAW grid and wavefunctions read in
 
   number of l-projection  operators is LMAX  =            4
   number of lm-projection operators is LMMAX =            8
 
 POTCAR:    PAW_PBE H_h 06Feb2004                 
   VRHFIN =H: ultrasoft test                                                                        
   LEXCH  = PE                                                                                      
   EATOM  =    12.4884 eV,    0.9179 Ry                                                             
                                                                                                    
   TITEL  = PAW_PBE H_h 06Feb2004                                                                   
   LULTRA =        F    use ultrasoft PP ?                                                          
   IUNSCR =        0    unscreen: 0-lin 1-nonlin 2-no                                               
   RPACOR =    0.000    partial core radius                                                         
   POMASS =    1.000; ZVAL   =    1.000    mass and valenz                                          
   RCORE  =    0.800    outmost cutoff radius                                                       
   RWIGS  =    0.700; RWIGS  =    0.370    wigner-seitz radius (au A)                               
   ENMAX  =  700.000; ENMIN  =  350.000 eV                                                          
   RCLOC  =    0.701    cutoff for local pot                                                        
   LCOR   =        T    correct aug charges                                                         
   LPAW   =        T    paw PP                                                                      
   EAUG   = 1000.000                                                                                
   RMAX   =    0.819    core radius for proj-oper                                                   
   RAUG   =    1.000    factor for augmentation sphere                                              
   RDEP   =    0.817    radius for radial grids                                                     
   RDEPT  =    0.817    core radius for aug-charge                                                  
                                                                                                    
   Atomic configuration                                                                             
    2 entries                                                                                       
     n  l   j            E        occ.                                                              
     1  0  0.50        -6.4927   1.0000                                                             
     2  1  0.50        -3.4015   0.0000                                                             
   Description                                                                                      
     l       E           TYP  RCUT    TYP  RCUT                                                     
     0     -6.4927493     23  0.800                                                                 
     0      6.8029130     23  0.800                                                                 
     1     -6.8029130     23  0.800                                                                 
  local pseudopotential read in
  atomic valenz-charges read in
  non local Contribution for L=            0  read in
    real space projection operators read in
  non local Contribution for L=            0  read in
    real space projection operators read in
  non local Contribution for L=            1  read in
    real space projection operators read in
    PAW grid and wavefunctions read in
 
   number of l-projection  operators is LMAX  =            3
   number of lm-projection operators is LMMAX =            5
 
 Optimization of the real space projectors (new method)

 maximal supplied QI-value         = 16.25
 optimisation between [QCUT,QGAM] = [ 14.46, 28.93] = [ 58.58,234.33] Ry 
 Optimized for a Real-space Cutoff    1.35 Angstroem

   l    n(q)    QCUT    max X(q) W(low)/X(q) W(high)/X(q)  e(spline) 
   2     11    14.464     4.610    0.56E-04    0.10E-03    0.52E-06
   2     11    14.464     8.522    0.88E-04    0.16E-03    0.84E-06
   0     12    14.464    51.609    0.44E-04    0.29E-04    0.63E-06
   0     12    14.464    27.747    0.38E-04    0.27E-04    0.60E-06
   1     11    14.464    20.408    0.64E-04    0.66E-04    0.14E-06
   1     11    14.464    13.425    0.56E-04    0.59E-04    0.13E-06
 Optimization of the real space projectors (new method)

 maximal supplied QI-value         = 34.20
 optimisation between [QCUT,QGAM] = [ 14.37, 28.73] = [ 57.79,231.16] Ry 
 Optimized for a Real-space Cutoff    0.98 Angstroem

   l    n(q)    QCUT    max X(q) W(low)/X(q) W(high)/X(q)  e(spline) 
   0      8    14.366   280.207    0.54E-04    0.14E-03    0.22E-06
   0      8    14.366   228.978    0.55E-04    0.14E-03    0.22E-06
   1      8    14.366    86.127    0.24E-03    0.25E-03    0.26E-06
   1      8    14.366    65.368    0.24E-03    0.24E-03    0.26E-06
 Optimization of the real space projectors (new method)

 maximal supplied QI-value         = 47.24
 optimisation between [QCUT,QGAM] = [ 14.17, 28.82] = [ 56.25,232.56] Ry 
 Optimized for a Real-space Cutoff    0.95 Angstroem

   l    n(q)    QCUT    max X(q) W(low)/X(q) W(high)/X(q)  e(spline) 
   0      8    14.173    34.671    0.25E-03    0.45E-03    0.25E-06
   0      8    14.173    17.046    0.24E-03    0.43E-03    0.25E-06
   1      8    14.173     1.978    0.58E-04    0.22E-03    0.31E-06
 -----------------------------------------------------------------------------
|                                                                             |
|               ----> ADVICE to this user running VASP <----                  |
|                                                                             |
|     You enforced a specific xc type in the INCAR file but a different       |
|     type was found in the POTCAR file.                                      |
|     I HOPE YOU KNOW WHAT YOU ARE DOING!                                     |
|                                                                             |
 -----------------------------------------------------------------------------

  PAW_PBE Cu 22Jun2005                  :
 energy of atom  1       EATOM=-1390.9808
 kinetic energy error for atom=    0.0007 (will be added to EATOM!!)
  PAW_PBE O_h 06Feb2004                 :
 energy of atom  2       EATOM= -432.3788
 kinetic energy error for atom=    0.0500 (will be added to EATOM!!)
  PAW_PBE H_h 06Feb2004                 :
 energy of atom  3       EATOM=  -12.4884
 kinetic energy error for atom=    0.0035 (will be added to EATOM!!)
 
 
 POSCAR: Cu O  H
  positions in cartesian coordinates
  No initial velocities read in


 exchange-correlation table for R2SCAN
   RHO(1)=    0.500       N(1)  =     2000
   RHO(2)=  100.500       N(2)  =     4000
 


--------------------------------------------------------------------------------------------------------


 ion  position               nearest neighbor table
   1  0.692  0.119  0.321-   4 2.33   2 2.42  16 2.43  15 2.44  32 2.50   8 2.56   5 2.59  18 2.75
                            17 2.76
   2  0.928  0.125  0.333-  19 2.41   1 2.42  29 2.43  18 2.44  16 2.46  13 2.53   5 2.54   3 2.59
                             6 2.62
   3  0.183  0.126  0.333-  19 2.39  20 2.44  30 2.45  14 2.47  13 2.50   6 2.53   7 2.58   2 2.59

   4  0.465  0.120  0.333-  17 2.33   1 2.33  14 2.43  15 2.45  31 2.45   8 2.51  20 2.63   7 2.68

   5  0.810  0.380  0.328-   8 2.38  18 2.46   9 2.53   2 2.54  21 2.55  12 2.56   6 2.57  22 2.58
                             1 2.59
   6  0.063  0.378  0.329-  10 2.51  23 2.51  22 2.53   3 2.53  19 2.54   5 2.57   7 2.59   2 2.62
                             9 2.63
   7  0.318  0.374  0.329-  24 2.48  11 2.55  23 2.55  20 2.56   3 2.58   6 2.59   8 2.61   4 2.68
                            10 2.70
   8  0.576  0.375  0.333-   5 2.38  21 2.41  17 2.47   4 2.51  24 2.53   1 2.56  12 2.56  11 2.61
                             7 2.61
   9  0.928  0.634  0.330-  26 2.39  12 2.45  25 2.47  16 2.47  22 2.50  10 2.51   5 2.53  13 2.54
                             6 2.63
  10  0.176  0.634  0.328-  13 2.48  26 2.50   9 2.51   6 2.51  23 2.57  27 2.62  11 2.68   7 2.70
                            14 2.76
  11  0.440  0.628  0.332-  28 2.45  24 2.47  12 2.53  27 2.54   7 2.55  15 2.60   8 2.61  14 2.66
                            10 2.68
  12  0.688  0.635  0.324-  15 2.40   9 2.45  16 2.50  11 2.53   5 2.56   8 2.56  28 2.58  25 2.62
                            21 2.69
  13  0.058  0.881  0.326-  10 2.48  16 2.50   3 2.50   2 2.53   9 2.54  26 2.58  30 2.60  29 2.66
                            14 2.69
  14  0.323  0.898  0.326-   4 2.43  31 2.45   3 2.47  30 2.55  15 2.58  11 2.66  13 2.69  10 2.76
                            27 2.77
  15  0.577  0.876  0.323-  16 2.38  12 2.40   1 2.44   4 2.45  32 2.48  14 2.58  11 2.60  28 2.62
                            31 2.72
  16  0.812  0.881  0.326-  15 2.38   1 2.43   2 2.46   9 2.47  32 2.48  13 2.50  12 2.50  29 2.62
                            25 2.68
  17  0.565  0.205  0.398-   4 2.33  32 2.42   8 2.47  33 2.48  18 2.49  37 2.50  40 2.53  24 2.60
                            20 2.61  21 2.61  31 2.62   1 2.76
  18  0.810  0.229  0.397-  21 2.41   2 2.44   5 2.46  22 2.46  37 2.49  17 2.49  19 2.50  38 2.51
                            29 2.60  32 2.61  34 2.65   1 2.75
  19  0.056  0.204  0.396-   3 2.39   2 2.41  29 2.45  18 2.50   6 2.54  38 2.54  35 2.54  20 2.56
                            22 2.58  39 2.61  30 2.62  23 2.63
  20  0.308  0.205  0.398-   3 2.44  36 2.49  39 2.49  30 2.53  40 2.53   7 2.56  24 2.56  19 2.56
                            23 2.57  31 2.60  17 2.61   4 2.63
  21  0.689  0.465  0.398-   8 2.41  18 2.41  25 2.43  41 2.48  44 2.50  28 2.51  22 2.54  37 2.54
                             5 2.55  24 2.60  17 2.61  12 2.69
  22  0.940  0.466  0.397-  26 2.39  18 2.46  25 2.49   9 2.50  42 2.50  23 2.51  41 2.52   6 2.53
                            21 2.54  38 2.57   5 2.58  19 2.58
  23  0.187  0.462  0.397-  27 2.49  24 2.49  22 2.51   6 2.51  42 2.53  43 2.53   7 2.55  39 2.56
                            20 2.57  10 2.57  26 2.59  19 2.63
  24  0.433  0.459  0.398-  11 2.47   7 2.48  23 2.49  43 2.49  40 2.52   8 2.53  44 2.54  27 2.55
                            20 2.56  21 2.60  17 2.60  28 2.63
  25  0.808  0.705  0.398-  21 2.43  28 2.43  26 2.43   9 2.47  48 2.49  41 2.49  22 2.49  45 2.53
                            29 2.60  32 2.62  12 2.62  16 2.68
  26  0.048  0.708  0.395-   9 2.39  22 2.39  25 2.43  10 2.50  45 2.51  29 2.56  42 2.58  13 2.58
                            23 2.59  30 2.59  27 2.62  46 2.65
  27  0.306  0.709  0.399-  30 2.41  46 2.44  31 2.46  43 2.48  23 2.49  47 2.51  11 2.54  24 2.55
                            10 2.62  26 2.62  28 2.66  14 2.77
  28  0.569  0.714  0.396-  25 2.43  11 2.45  31 2.46  21 2.51  48 2.51  32 2.54  47 2.58  12 2.58
                            44 2.59  15 2.62  24 2.63  27 2.66
  29  0.930  0.966  0.399-  34 2.43   2 2.43  19 2.45  32 2.47  35 2.52  45 2.53  26 2.56  25 2.60
                            18 2.60  16 2.62  13 2.66  30 2.67
  30  0.192  0.951  0.396-  27 2.41   3 2.45  31 2.45  46 2.51  20 2.53  36 2.54  14 2.55  26 2.59
                            35 2.59  13 2.60  19 2.62  29 2.67
  31  0.434  0.948  0.397-  14 2.45  30 2.45   4 2.45  28 2.46  27 2.46  47 2.49  36 2.56  32 2.58
                            33 2.59  20 2.60  17 2.62  15 2.72
  32  0.687  0.968  0.391-  17 2.42  29 2.47  16 2.48  15 2.48   1 2.50  28 2.54  31 2.58  18 2.61
                            25 2.62  33 2.65  34 2.65  48 2.72
  33  0.562  0.042  0.466-  17 2.48  47 2.54  36 2.54  48 2.54  52 2.54  40 2.54  63 2.54  49 2.54
                            37 2.54  34 2.54  31 2.59  32 2.65
  34  0.813  0.042  0.466-  29 2.43  45 2.54  35 2.54  48 2.54  50 2.54  38 2.54  64 2.54  49 2.54
                            37 2.54  33 2.54  32 2.65  18 2.65
  35  0.063  0.042  0.466-  29 2.52  34 2.54  46 2.54  45 2.54  61 2.54  36 2.54  51 2.54  39 2.54
                            50 2.54  38 2.54  19 2.54  30 2.59
  36  0.313  0.042  0.466-  20 2.49  33 2.54  47 2.54  46 2.54  62 2.54  35 2.54  52 2.54  51 2.54
                            40 2.54  39 2.54  30 2.54  31 2.56
  37  0.688  0.292  0.466-  18 2.49  17 2.50  38 2.54  40 2.54  41 2.54  44 2.54  53 2.54  56 2.54
                            49 2.54  34 2.54  33 2.54  21 2.54
  38  0.937  0.292  0.466-  18 2.51  41 2.54  37 2.54  42 2.54  53 2.54  34 2.54  39 2.54  54 2.54
                            50 2.54  35 2.54  19 2.54  22 2.57
  39  0.187  0.292  0.466-  20 2.49  42 2.54  43 2.54  54 2.54  55 2.54  38 2.54  35 2.54  51 2.54
                            36 2.54  40 2.54  23 2.56  19 2.61
  40  0.438  0.292  0.466-  24 2.52  17 2.53  20 2.53  44 2.54  37 2.54  43 2.54  56 2.54  33 2.54
                            55 2.54  52 2.54  36 2.54  39 2.54
  41  0.813  0.542  0.466-  21 2.48  25 2.49  22 2.52  38 2.54  37 2.54  42 2.54  45 2.54  57 2.54
                            48 2.54  53 2.54  60 2.54  44 2.54
  42  0.063  0.542  0.466-  22 2.50  23 2.53  39 2.54  38 2.54  41 2.54  43 2.54  46 2.54  58 2.54
                            54 2.54  45 2.54  57 2.54  26 2.58
  43  0.313  0.542  0.466-  27 2.48  24 2.49  23 2.53  44 2.54  40 2.54  39 2.54  42 2.54  47 2.54
                            46 2.54  55 2.54  59 2.54  58 2.54
  44  0.562  0.542  0.466-  21 2.50  40 2.54  43 2.54  37 2.54  47 2.54  59 2.54  48 2.54  56 2.54
                            60 2.54  41 2.54  24 2.54  28 2.59
  45  0.937  0.792  0.466-  26 2.51  29 2.53  25 2.53  34 2.54  48 2.54  35 2.54  41 2.54  64 2.54
                            46 2.54  57 2.54  42 2.54  61 2.54
  46  0.187  0.792  0.466-  27 2.44  30 2.51  35 2.54  36 2.54  42 2.54  45 2.54  61 2.54  43 2.54
                            58 2.54  62 2.54  47 2.54  26 2.65
  47  0.438  0.792  0.466-  31 2.49  27 2.51  33 2.54  48 2.54  36 2.54  44 2.54  63 2.54  43 2.54
                            59 2.54  62 2.54  46 2.54  28 2.58
  48  0.688  0.792  0.466-  25 2.49  28 2.51  45 2.54  47 2.54  34 2.54  33 2.54  41 2.54  44 2.54
                            60 2.54  64 2.54  63 2.54  32 2.72
  49  0.688  0.125  0.534-  50 2.54  52 2.54  53 2.54  56 2.54  64 2.54  63 2.54  37 2.54  34 2.54
                            33 2.54  65 2.55  80 2.57  66 2.59
  50  0.937  0.125  0.534-  66 2.51  53 2.54  64 2.54  49 2.54  54 2.54  61 2.54  34 2.54  51 2.54
                            38 2.54  35 2.54  67 2.55  77 2.57
  51  0.187  0.125  0.534-  78 2.51  67 2.53  54 2.54  55 2.54  61 2.54  62 2.54  50 2.54  35 2.54
                            39 2.54  36 2.54  52 2.54  68 2.57
  52  0.438  0.125  0.534-  68 2.46  56 2.54  63 2.54  49 2.54  55 2.54  62 2.54  33 2.54  40 2.54
                            36 2.54  51 2.54  79 2.55  65 2.69
  53  0.813  0.375  0.534-  70 2.46  69 2.49  50 2.54  49 2.54  54 2.54  38 2.54  57 2.54  37 2.54
                            60 2.54  41 2.54  56 2.54  66 2.56
  54  0.063  0.375  0.534-  70 2.43  67 2.52  51 2.54  50 2.54  53 2.54  39 2.54  55 2.54  58 2.54
                            38 2.54  42 2.54  57 2.54  71 2.58
  55  0.313  0.375  0.534-  56 2.54  52 2.54  51 2.54  54 2.54  40 2.54  39 2.54  59 2.54  58 2.54
                            43 2.54  72 2.54  68 2.55  71 2.72
  56  0.562  0.375  0.534-  69 2.46  65 2.53  52 2.54  55 2.54  49 2.54  40 2.54  59 2.54  37 2.54
                            60 2.54  44 2.54  53 2.54  72 2.63
  57  0.937  0.625  0.534-  73 2.48  74 2.52  70 2.53  60 2.54  53 2.54  64 2.54  41 2.54  58 2.54
                            45 2.54  54 2.54  61 2.54  42 2.54
  58  0.187  0.625  0.534-  54 2.54  61 2.54  57 2.54  42 2.54  55 2.54  62 2.54  46 2.54  43 2.54
                            59 2.54  71 2.58  75 2.62  74 2.68
  59  0.438  0.625  0.534-  72 2.48  60 2.54  56 2.54  63 2.54  44 2.54  55 2.54  62 2.54  47 2.54
                            43 2.54  58 2.54  76 2.60  75 2.65
  60  0.688  0.625  0.534-  69 2.45  73 2.53  57 2.54  59 2.54  53 2.54  56 2.54  64 2.54  63 2.54
                            48 2.54  41 2.54  44 2.54  76 2.61
  61  0.063  0.875  0.534-  78 2.46  64 2.54  51 2.54  50 2.54  35 2.54  62 2.54  58 2.54  46 2.54
                            57 2.54  45 2.54  74 2.61  77 2.65
  62  0.313  0.875  0.534-  78 2.47  63 2.54  52 2.54  51 2.54  36 2.54  61 2.54  59 2.54  58 2.54
                            47 2.54  46 2.54  75 2.57  79 2.64
  63  0.562  0.875  0.534-  79 2.53  52 2.54  62 2.54  59 2.54  49 2.54  47 2.54  33 2.54  60 2.54
                            48 2.54  64 2.54  80 2.54  76 2.62
  64  0.813  0.875  0.534-  73 2.44  80 2.49  50 2.54  61 2.54  57 2.54  49 2.54  45 2.54  34 2.54
                            60 2.54  48 2.54  63 2.54  77 2.60
  65  0.577  0.220  0.605-  69 2.39  66 2.47  88 2.51  56 2.53  85 2.53  49 2.55  81 2.55  68 2.58
                            79 2.61  80 2.64  72 2.68  52 2.69
  66  0.820  0.207  0.604-  77 2.40  82 2.42  70 2.44  65 2.47  67 2.48  50 2.51  85 2.54  53 2.56
                            86 2.58  80 2.59  49 2.59  69 2.64
  67  0.065  0.211  0.603-  86 2.43  70 2.43  66 2.48  83 2.49  71 2.51  54 2.52  87 2.52  51 2.53
                            77 2.55  50 2.55  78 2.58  68 2.62
  68  0.324  0.203  0.603-  84 2.43  52 2.46  79 2.46  87 2.51  55 2.55  51 2.57  65 2.58  72 2.60
                            78 2.60  67 2.62  88 2.68  71 2.78
  69  0.685  0.462  0.600-  65 2.39  60 2.45  56 2.46  76 2.49  53 2.49  85 2.50  70 2.59  72 2.60
                            73 2.61  66 2.64  92 2.65  89 2.65
  70  0.940  0.448  0.601-  71 2.38  67 2.43  54 2.43  66 2.44  53 2.46  86 2.47  57 2.53  74 2.53
                            69 2.59  89 2.62  73 2.67  90 2.72
  71  0.173  0.468  0.606-  70 2.38  87 2.45  74 2.46  90 2.47  67 2.51  58 2.58  54 2.58  72 2.59
                            75 2.59  91 2.60  55 2.72  68 2.78
  72  0.428  0.473  0.603-  76 2.46  75 2.47  59 2.48  55 2.54  91 2.58  71 2.59  68 2.60  92 2.60
                            69 2.60  56 2.63  88 2.64  65 2.68
  73  0.817  0.717  0.601-  74 2.33  80 2.42  64 2.44  77 2.48  57 2.48  60 2.53  89 2.54  96 2.58
                            76 2.60  69 2.61  93 2.62  70 2.67
  74  0.047  0.708  0.606-  73 2.33  71 2.46  93 2.49  90 2.50  57 2.52  70 2.53  77 2.55  78 2.58
                            61 2.61  75 2.66  58 2.68  94 2.68
  75  0.310  0.718  0.606-  78 2.42  72 2.47  76 2.55  95 2.55  62 2.57  94 2.57  79 2.57  71 2.59
                            91 2.61  58 2.62  59 2.65  74 2.66
  76  0.561  0.707  0.606-  92 2.43  72 2.46  95 2.48  69 2.49  79 2.52  80 2.53  75 2.55  96 2.56
                            59 2.60  73 2.60  60 2.61  63 2.62
  77  0.932  0.965  0.606-  82 2.40  66 2.40  80 2.43  93 2.43  83 2.47  73 2.48  74 2.55  67 2.55
                            50 2.57  78 2.59  64 2.60  61 2.65
  78  0.186  0.953  0.601-  75 2.42  61 2.46  62 2.47  84 2.48  51 2.51  83 2.57  74 2.58  67 2.58
                            77 2.59  68 2.60  94 2.66  79 2.66
  79  0.448  0.963  0.605-  81 2.41  68 2.46  80 2.48  84 2.50  76 2.52  63 2.53  95 2.54  52 2.55
                            75 2.57  65 2.61  62 2.64  78 2.66
  80  0.693  0.951  0.603-  73 2.42  77 2.43  79 2.48  64 2.49  81 2.50  76 2.53  82 2.54  63 2.54
                            96 2.56  49 2.57  66 2.59  65 2.64
  81  0.569  0.036  0.670-  79 2.41  95 2.45  80 2.50  82 2.50  96 2.53  65 2.55  88 2.58  84 2.69

  82  0.815  0.052  0.670-  77 2.40  66 2.42  93 2.45  81 2.50  83 2.53  80 2.54  85 2.58  96 2.61
                            86 2.62
  83  0.064  0.048  0.670-  84 2.43  93 2.45  77 2.47  86 2.47  67 2.49  94 2.51  82 2.53  87 2.55
                            78 2.57
  84  0.304  0.043  0.668-  68 2.43  83 2.43  87 2.45  94 2.47  78 2.48  79 2.50  95 2.60  81 2.69
                            88 2.73
  85  0.705  0.318  0.671-  89 2.38  69 2.50  88 2.53  65 2.53  92 2.54  66 2.54  86 2.57  82 2.58

  86  0.958  0.301  0.670-  67 2.43  87 2.43  90 2.45  70 2.47  83 2.47  85 2.57  66 2.58  82 2.62
                            89 2.64
  87  0.198  0.294  0.669-  86 2.43  71 2.45  84 2.45  91 2.47  68 2.51  67 2.52  83 2.55  88 2.63
                            90 2.66
  88  0.457  0.299  0.674-  92 2.48  65 2.51  85 2.53  81 2.58  91 2.62  87 2.63  72 2.64  68 2.68
                            84 2.73
  89  0.819  0.555  0.671-  85 2.38  96 2.40  90 2.47  73 2.54  93 2.55  92 2.61  70 2.62  86 2.64
                            69 2.65
  90  0.062  0.552  0.675-  86 2.45  89 2.47  71 2.47  91 2.50  74 2.50  94 2.51  93 2.61  87 2.66
                            70 2.72
  91  0.308  0.543  0.676-  87 2.47  90 2.50  94 2.58  92 2.58  72 2.58  71 2.60  75 2.61  88 2.62
                            95 2.63
  92  0.562  0.554  0.673-  76 2.43  95 2.44  96 2.47  88 2.48  85 2.54  91 2.58  72 2.60  89 2.61
                            69 2.65
  93  0.937  0.811  0.673-  77 2.43  96 2.44  83 2.45  82 2.45  74 2.49  94 2.52  89 2.55  90 2.61
                            73 2.62
  94  0.185  0.800  0.677-  84 2.47  90 2.51  83 2.51  93 2.52  75 2.57  91 2.58  95 2.64  78 2.66
                            74 2.68
  95  0.445  0.797  0.674-  92 2.44  81 2.45  76 2.48  79 2.54  96 2.55  75 2.55  84 2.60  91 2.63
                            94 2.64
  96  0.697  0.789  0.673-  89 2.40  93 2.44  92 2.47  81 2.53  95 2.55  76 2.56  80 2.56  73 2.58
                            82 2.61
  97  0.023  0.308  0.884- 147 0.95 148 0.96
  98  0.461  0.389  0.881- 149 0.98 150 0.99
  99  0.851  0.895  0.782- 230 0.97 152 1.01
 100  0.927  0.568  0.925- 153 0.99 154 0.99
 101  0.991  0.447  0.797- 156 0.96 155 0.99
 102  0.277  0.612  0.895- 171 0.95 158 0.95
 103  0.951  0.862  0.895- 160 1.01 175 1.03
 104  0.126  0.059  0.926- 162 0.94 157 0.96
 105  0.548  0.108  0.004- 163 0.99 188 1.00
 106  0.280  0.274  0.812- 165 0.96 164 1.03
 107  0.386  0.157  0.925- 161 0.97 167 1.02
 108  0.328  0.033  0.056- 169 0.93 170 0.96
 109  0.386  0.420  0.225- 159 0.94 172 1.02
 110  0.987  0.283  0.109- 173 0.97 174 1.00
 111  0.026  0.350  0.017- 176 0.96 151 0.96
 112  0.417  0.270  0.094- 177 0.99 184 1.01
 113  0.697  0.406  0.208- 179 0.96 178 1.01
 114  0.787  0.588  0.033- 180 0.92 181 0.99
 115  0.354  0.080  0.222- 183 0.96 182 0.98
 116  0.862  0.979  0.104- 166 0.95 185 1.00
 117  0.081  0.640  0.079- 187 0.92 186 1.01
 118  0.126  0.421  0.229- 190 1.01 189 1.03
 119  0.346  0.593  0.781- 168 0.96 191 0.97
 120  0.134  0.867  0.012- 192 0.97 196 0.97
 121  0.707  0.846  0.965- 195 0.93 193 0.94
 122  0.927  0.534  0.171- 197 0.97 194 1.01
 123  0.761  0.073  0.889- 199 0.97 198 1.01
 124  0.793  0.899  0.217- 203 0.96 200 0.98
 125  0.640  0.934  0.150- 201 0.98 222 1.00
 126  0.251  0.401  0.959- 204 0.97 202 1.03
 127  0.535  0.662  0.216- 206 0.96 205 0.98
 128  0.009  0.837  0.176- 209 0.98 207 1.01
 129  0.413  0.759  0.121- 210 0.97 208 1.00
 130  0.326  0.526  0.061- 213 0.94 212 0.96
 131  0.524  0.339  0.794- 214 0.97 218 1.03
 132  0.114  0.752  0.837- 217 0.97 215 0.99
 133  0.910  0.090  0.016- 216 0.95 219 0.98
 134  0.492  0.884  0.774- 221 0.98 220 0.98
 135  0.610  0.374  0.043- 226 0.93 236 1.00
 136  0.260  0.763  0.208- 223 0.92 225 0.97
 137  0.654  0.697  0.824- 224 0.95 227 0.97
 138  0.988  0.152  0.759- 229 0.98 228 1.02
 139  0.124  0.126  0.193- 231 0.99 233 0.99
 140  0.503  0.077  0.848- 234 0.98 232 1.00
 141  0.432  0.605  0.986- 235 0.95 211 1.00
 142  0.729  0.158  0.769- 237 0.95 238 1.06
 143  0.675  0.330  0.945- 239 0.94 240 1.01
 144  0.537  0.210  0.174- 242 0.99 241 1.01
 145  0.224  0.988  0.768- 244 0.98 243 0.99
 146  0.505  0.812  0.901- 246 0.97 245 0.98
 147  0.019  0.326  0.853-  97 0.95
 148  0.001  0.405  0.896-  97 0.96
 149  0.399  0.473  0.882-  98 0.98
 150  0.492  0.383  0.850-  98 0.99
 151  0.017  0.396  0.045- 111 0.96
 152  0.934  0.959  0.783-  99 1.01
 153  0.847  0.534  0.941- 100 0.99
 154  0.932  0.678  0.918- 100 0.99
 155  0.051  0.535  0.797- 101 0.99
 156  0.961  0.436  0.767- 101 0.96
 157  0.087  0.140  0.910- 104 0.96
 158  0.238  0.543  0.915- 102 0.95
 159  0.409  0.363  0.250- 109 0.94
 160  0.024  0.925  0.908- 103 1.01
 161  0.451  0.134  0.947- 107 0.97
 162  0.214  0.091  0.929- 104 0.94
 163  0.629  0.049  0.008- 105 0.99
 164  0.269  0.175  0.795- 106 1.03
 165  0.279  0.238  0.842- 106 0.96
 166  0.773  0.981  0.114- 116 0.95
 167  0.417  0.243  0.905- 107 1.02
 168  0.309  0.494  0.786- 119 0.96
 169  0.348  0.115  0.075- 108 0.93
 170  0.352  0.944  0.072- 108 0.96
 171  0.209  0.643  0.876- 102 0.95
 172  0.429  0.525  0.225- 109 1.02
 173  0.921  0.206  0.116- 110 0.97
 174  0.960  0.362  0.132- 110 1.00
 175  0.874  0.939  0.895- 103 1.03
 176  0.975  0.410  0.996- 111 0.96
 177  0.461  0.262  0.124- 112 0.99
 178  0.637  0.324  0.195- 113 1.01
 179  0.673  0.425  0.238- 113 0.96
 180  0.814  0.655  0.055- 114 0.92
 181  0.719  0.522  0.047- 114 0.99
 182  0.339  0.099  0.254- 115 0.98
 183  0.274  0.109  0.207- 115 0.96
 184  0.373  0.371  0.089- 112 1.01
 185  0.910  0.943  0.131- 116 1.00
 186  0.084  0.728  0.057- 117 1.01
 187  0.065  0.686  0.106- 117 0.92
 188  0.479  0.059  0.023- 105 1.00
 189  0.228  0.424  0.227- 118 1.03
 190  0.099  0.426  0.261- 118 1.01
 191  0.300  0.636  0.756- 119 0.97
 192  0.198  0.945  0.019- 120 0.97
 193  0.783  0.872  0.949- 121 0.94
 194  0.994  0.493  0.193- 122 1.01
 195  0.739  0.786  0.988- 121 0.93
 196  0.054  0.916  0.001- 120 0.97
 197  0.847  0.485  0.181- 122 0.97
 198  0.827  0.143  0.875- 123 1.01
 199  0.684  0.091  0.871- 123 0.97
 200  0.877  0.903  0.201- 124 0.98
 201  0.570  0.861  0.141- 125 0.98
 202  0.293  0.302  0.947- 126 1.03
 203  0.796  0.925  0.248- 124 0.96
 204  0.199  0.369  0.984- 126 0.97
 205  0.544  0.720  0.244- 127 0.98
 206  0.606  0.593  0.209- 127 0.96
 207  0.106  0.823  0.181- 128 1.01
 208  0.388  0.670  0.102- 129 1.00
 209  0.975  0.734  0.180- 128 0.98
 210  0.391  0.746  0.152- 129 0.97
 211  0.501  0.530  0.995- 141 1.00
 212  0.238  0.560  0.068- 130 0.96
 213  0.352  0.580  0.036- 130 0.94
 214  0.509  0.420  0.773- 131 0.97
 215  0.030  0.784  0.851- 132 0.99
 216  0.919  0.058  0.046- 133 0.95
 217  0.134  0.844  0.821- 132 0.97
 218  0.431  0.293  0.800- 131 1.03
 219  0.945  0.194  0.015- 133 0.98
 220  0.506  0.903  0.742- 134 0.98
 221  0.527  0.785  0.783- 134 0.98
 222  0.670  0.905  0.180- 125 1.00
 223  0.230  0.704  0.231- 136 0.92
 224  0.721  0.766  0.814- 137 0.95
 225  0.303  0.857  0.217- 136 0.97
 226  0.641  0.324  0.018- 135 0.93
 227  0.632  0.735  0.854- 137 0.97
 228  0.891  0.176  0.752- 138 1.02
 229  0.032  0.244  0.770- 138 0.98
 230  0.844  0.884  0.750-  99 0.97
 231  0.087  0.162  0.165- 139 0.99
 232  0.521  0.026  0.819- 140 1.00
 233  0.108  0.217  0.212- 139 0.99
 234  0.492  0.989  0.868- 140 0.98
 235  0.358  0.546  0.976- 141 0.95
 236  0.539  0.304  0.053- 135 1.00
 237  0.698  0.059  0.776- 142 0.95
 238  0.649  0.231  0.776- 142 1.06
 239  0.712  0.239  0.934- 143 0.94
 240  0.623  0.383  0.921- 143 1.01
 241  0.467  0.175  0.196- 144 1.01
 242  0.578  0.116  0.162- 144 0.99
 243  0.293  0.916  0.759- 145 0.99
 244  0.158  0.988  0.744- 145 0.98
 245  0.551  0.837  0.929- 146 0.98
 246  0.436  0.741  0.909- 146 0.97
 
  LATTYP: Found a simple orthorhombic cell.
 ALAT       =     8.7818242399
 B/A-ratio  =     1.1547005384
 C/A-ratio  =     3.4310783653
  
  Lattice vectors:
  
 A1 = (   0.0000000000,  -8.7818242399,   0.0000000000)
 A2 = (  10.1403771778,   0.0000000000,   0.0000000000)
 A3 = (   0.0000000000,   0.0000000000,  30.1311271579)


Analysis of symmetry for initial positions (statically):
=====================================================================
 Subroutine PRICEL returns:
 Original cell was already a primitive cell.
 

 Routine SETGRP: Setting up the symmetry group for a 
 simple orthorhombic supercell.


 Subroutine GETGRP returns: Found  1 space group operations
 (whereof  1 operations were pure point group operations)
 out of a pool of  8 trial point group operations.


The static configuration has the point symmetry C_1 .


Analysis of symmetry for dynamics (positions and initial velocities):
=====================================================================
 Subroutine PRICEL returns:
 Original cell was already a primitive cell.
 

 Routine SETGRP: Setting up the symmetry group for a 
 simple orthorhombic supercell.


 Subroutine GETGRP returns: Found  1 space group operations
 (whereof  1 operations were pure point group operations)
 out of a pool of  8 trial point group operations.


The dynamic configuration has the point symmetry C_1 .


 Subroutine INISYM returns: Found  1 space group operations
 (whereof  1 operations are pure point group operations),
 and found     1 'primitive' translations


----------------------------------------------------------------------------------------

                                     Primitive cell                                     

  volume of cell :    2683.2073

  direct lattice vectors                    reciprocal lattice vectors
    10.140377178  0.000000000  0.000000000     0.098615661  0.000000000  0.000000000
     0.000000000  8.781824240  0.000000000     0.000000000  0.113871557  0.000000000
     0.000000000  0.000000000 30.131127158     0.000000000  0.000000000  0.033188271

  length of vectors
    10.140377178  8.781824240 30.131127158     0.098615661  0.113871557  0.033188271

  position of ions in fractional coordinates (direct lattice)
     0.691783932  0.119422795  0.321004918
     0.927669635  0.125144841  0.332622804
     0.182746654  0.125530866  0.333133903
     0.464623743  0.120229006  0.333326395
     0.809886048  0.380075928  0.328014944
     0.063075662  0.378383797  0.328663443
     0.318382634  0.373996326  0.329289706
     0.575890807  0.375194255  0.333077483
     0.928406294  0.634014055  0.330302612
     0.175505306  0.633526685  0.327708949
     0.439893894  0.627732900  0.332144893
     0.688004980  0.634952357  0.323891634
     0.058004351  0.880861401  0.326042566
     0.323238470  0.897693894  0.325737233
     0.576984455  0.875828278  0.322987585
     0.811778483  0.880856846  0.325593196
     0.565371475  0.204700066  0.398352174
     0.810188798  0.228597151  0.396536775
     0.055616965  0.204177395  0.395813271
     0.308091104  0.205189714  0.398328942
     0.689340236  0.465325869  0.398169638
     0.939594241  0.465739223  0.397154077
     0.187140968  0.461749164  0.396706036
     0.432892182  0.458656412  0.397651901
     0.807956140  0.705471874  0.398282478
     0.047641226  0.708146716  0.395278940
     0.306234171  0.709360587  0.399258214
     0.568700740  0.714162551  0.395965937
     0.929517693  0.966036187  0.398717245
     0.192413947  0.950604313  0.396460442
     0.434177144  0.947734750  0.396526819
     0.687224930  0.968315895  0.391498796
     0.562499787  0.041666628  0.465651349
     0.812500349  0.041666628  0.465651349
     0.062500042  0.041666628  0.465651349
     0.312500210  0.041666628  0.465651349
     0.687500068  0.291667190  0.465651349
     0.937499645  0.291667190  0.465651349
     0.187499929  0.291667190  0.465651349
     0.437500492  0.291667190  0.465651349
     0.812500349  0.541666500  0.465651349
     0.062500042  0.541666500  0.465651349
     0.312500210  0.541666500  0.465651349
     0.562499787  0.541666500  0.465651349
     0.937499645  0.791666949  0.465651349
     0.187499929  0.791666949  0.465651349
     0.437500492  0.791666949  0.465651349
     0.687500068  0.791666949  0.465651349
     0.687500068  0.125000224  0.534347750
     0.937499645  0.125000224  0.534347750
     0.187499929  0.125000224  0.534347750
     0.437500492  0.125000224  0.534347750
     0.812500349  0.374999534  0.534347750
     0.062500042  0.374999534  0.534347750
     0.312500210  0.374999534  0.534347750
     0.562499787  0.374999534  0.534347750
     0.937499645  0.624999983  0.534347750
     0.187499929  0.624999983  0.534347750
     0.437500492  0.624999983  0.534347750
     0.687500068  0.624999983  0.534347750
     0.062500042  0.875000432  0.534347750
     0.312500210  0.875000432  0.534347750
     0.562499787  0.875000432  0.534347750
     0.812500349  0.875000432  0.534347750
     0.577275371  0.220307301  0.605022172
     0.820382699  0.206570976  0.603810800
     0.065020856  0.211215796  0.602888166
     0.323692102  0.203307417  0.602552965
     0.684718120  0.462382290  0.600319394
     0.940077458  0.447722465  0.600531799
     0.173135572  0.468024625  0.606449268
     0.428463352  0.472972345  0.603472280
     0.817238832  0.716559547  0.600923421
     0.046900622  0.707710588  0.605646112
     0.309531879  0.717920312  0.606130660
     0.561228631  0.707066075  0.606107429
     0.931802618  0.965416725  0.605848560
     0.186306679  0.952808867  0.600644639
     0.448419218  0.963257721  0.604643826
     0.692552148  0.951289820  0.603024238
     0.568979822  0.035837201  0.670293544
     0.815347384  0.052267386  0.670386471
     0.064474821  0.047979097  0.670257037
     0.304301304  0.043471606  0.667867481
     0.705392894  0.317572969  0.671395394
     0.958022550  0.301123084  0.670134240
     0.197677065  0.293870605  0.669337722
     0.456781826  0.298986854  0.674259542
     0.819132253  0.554979224  0.670837831
     0.062029843  0.552076638  0.675095887
     0.308320879  0.543133166  0.676293983
     0.562014598  0.554199204  0.673174286
     0.936920771  0.811200476  0.672922055
     0.185104555  0.799559386  0.676642460
     0.445419329  0.796837856  0.673721892
     0.697125943  0.788581029  0.673463024
     0.023110383  0.307874529  0.883773775
     0.461254046  0.389220953  0.880932859
     0.850978208  0.894833441  0.782250856
     0.927149931  0.568143914  0.925132998
     0.990545009  0.446822880  0.796730898
     0.277457135  0.611961690  0.894981454
     0.950530718  0.862119281  0.894639615
     0.126360191  0.058628365  0.925833270
     0.547678839  0.108298341  0.003703877
     0.280111869  0.274218651  0.812296197
     0.385658238  0.156572252  0.924671681
     0.327713648  0.033364936  0.056010185
     0.385589208  0.419984493  0.224829956
     0.986536201  0.283201979  0.109300923
     0.026453158  0.350265493  0.016689286
     0.416588054  0.270001988  0.094489993
     0.696834040  0.405634399  0.207611550
     0.786618669  0.588427855  0.032981508
     0.353999653  0.079783651  0.221887484
     0.862282521  0.979417233  0.104464396
     0.080841076  0.640459186  0.078699346
     0.126129431  0.421042360  0.228937337
     0.346341161  0.592567086  0.780704282
     0.134045310  0.866523833  0.012165559
     0.706644326  0.846499520  0.964922416
     0.926714050  0.533951702  0.170876449
     0.761083130  0.072556793  0.889030797
     0.793082926  0.898763148  0.217216235
     0.639594552  0.933716023  0.149671467
     0.251386113  0.400586473  0.958951846
     0.535160567  0.661732670  0.216263068
     0.008597382  0.836648491  0.175929031
     0.413124672  0.759432188  0.120843139
     0.326275832  0.526115061  0.061200830
     0.523729040  0.339117468  0.794298198
     0.113533252  0.752454139  0.836759271
     0.910068712  0.090186843  0.015664432
     0.491864347  0.883856223  0.773525659
     0.610301756  0.374333386  0.043078043
     0.260196436  0.763336844  0.207698503
     0.653808027  0.697434819  0.823991743
     0.987803493  0.152405692  0.758630763
     0.123812949  0.126089975  0.192998422
     0.503353072  0.076869222  0.848458137
     0.431550023  0.604552067  0.985857577
     0.728982746  0.158265522  0.768683491
     0.675098163  0.330013437  0.944866744
     0.537114143  0.210282050  0.174441864
     0.223502534  0.988446109  0.768188985
     0.505153794  0.811999854  0.901287226
     0.018962805  0.326107643  0.852719510
     0.000603806  0.405206242  0.896123131
     0.398508845  0.473459715  0.882137593
     0.491981700  0.383275719  0.849679465
     0.016872548  0.396306041  0.045467599
     0.933719706  0.958847475  0.782795143
     0.847381695  0.534075822  0.941388613
     0.932157634  0.678245184  0.917629130
     0.050729474  0.535222509  0.797381388
     0.960908044  0.436341003  0.766642412
     0.086711666  0.140210048  0.909511279
     0.238247548  0.542796106  0.915302632
     0.409408834  0.362524905  0.249778907
     0.023888954  0.925316856  0.907845228
     0.451256390  0.133983551  0.947106952
     0.214335223  0.090654513  0.929304764
     0.629311897  0.049174749  0.008176694
     0.268835168  0.174811060  0.794845804
     0.278684900  0.237526958  0.842225379
     0.773469257  0.980552533  0.114167983
     0.416939126  0.242697866  0.904669110
     0.308662089  0.494267464  0.786286549
     0.347660638  0.115189051  0.074595284
     0.351555957  0.943926885  0.072293014
     0.208918264  0.642510012  0.875592867
     0.429220721  0.525212060  0.224571751
     0.920759636  0.206276048  0.116346461
     0.960076714  0.362493021  0.131505867
     0.873775190  0.938863017  0.894845382
     0.975407505  0.409591436  0.996208638
     0.461066676  0.262270109  0.123811166
     0.637278070  0.323675346  0.195206770
     0.672961161  0.424512026  0.237918414
     0.813917456  0.655310314  0.054662741
     0.719344051  0.522449536  0.047381234
     0.339448912  0.099213213  0.253677533
     0.273637750  0.109256798  0.207160189
     0.372874690  0.371028833  0.088957177
     0.909726516  0.942585478  0.131395682
     0.083817198  0.728030968  0.057095109
     0.065132291  0.686228719  0.105715594
     0.478889485  0.058891864  0.022823872
     0.227674963  0.423987078  0.227486014
     0.099343445  0.425762336  0.261226869
     0.299612129  0.636360948  0.755869499
     0.197919660  0.945132785  0.018971643
     0.782815063  0.872165030  0.948696670
     0.993976834  0.492814463  0.192551044
     0.738516908  0.785620369  0.987895336
     0.054328748  0.916245848  0.001440308
     0.846721956  0.485271611  0.180975971
     0.827496833  0.143186651  0.875012072
     0.683637293  0.090911863  0.871069305
     0.876638989  0.902653000  0.200680843
     0.570498503  0.861013588  0.141083338
     0.292633099  0.302046583  0.947004068
     0.796416135  0.925341908  0.248000015
     0.199027114  0.369160201  0.984387336
     0.544190803  0.719573727  0.243851813
     0.605678654  0.593110253  0.209493656
     0.106073964  0.823044256  0.181310509
     0.387607870  0.669708234  0.102336032
     0.974700430  0.733835001  0.180352695
     0.391372030  0.746203730  0.151896077
     0.500628321  0.529924065  0.994940714
     0.238163725  0.559817626  0.067501292
     0.352240349  0.580469372  0.035668098
     0.508880479  0.420391014  0.772921633
     0.029656885  0.783726685  0.851070053
     0.919159104  0.057948324  0.045670379
     0.134322420  0.844439583  0.820696148
     0.431107238  0.293244311  0.799704567
     0.944715352  0.194366222  0.015283232
     0.505767183  0.902802172  0.741651644
     0.526777250  0.785279893  0.782801781
     0.670092432  0.904725463  0.180223261
     0.229723210  0.703867423  0.230595091
     0.720526453  0.766136946  0.814085045
     0.303139612  0.856711521  0.216716420
     0.641006728  0.324295946  0.017747129
     0.632098776  0.735045456  0.853519348
     0.891184799  0.175827933  0.751581575
     0.032217441  0.243615670  0.769509879
     0.844091876  0.884361812  0.750439898
     0.086610486  0.162438915  0.164676880
     0.521478630  0.026441545  0.819411762
     0.107708025  0.216986807  0.211874251
     0.492289381  0.989495486  0.868487258
     0.357959072  0.545517636  0.976206428
     0.539104207  0.304032502  0.053048795
     0.697755111  0.058983645  0.775935128
     0.649084337  0.231473546  0.776091113
     0.711522843  0.238822817  0.934283004
     0.623267743  0.383230170  0.920742190
     0.466708478  0.174635697  0.196005279
     0.577599817  0.115772073  0.162370627
     0.293254378  0.916221935  0.759337674
     0.158491146  0.987977213  0.744167315
     0.551235906  0.837271369  0.928939693
     0.435747105  0.741205907  0.909006817

  ion indices of the primitive-cell ions
   primitive index   ion index
                 1           1
                 2           2
                 3           3
                 4           4
                 5           5
                 6           6
                 7           7
                 8           8
                 9           9
                10          10
                11          11
                12          12
                13          13
                14          14
                15          15
                16          16
                17          17
                18          18
                19          19
                20          20
                21          21
                22          22
                23          23
                24          24
                25          25
                26          26
                27          27
                28          28
                29          29
                30          30
                31          31
                32          32
                33          33
                34          34
                35          35
                36          36
                37          37
                38          38
                39          39
                40          40
                41          41
                42          42
                43          43
                44          44
                45          45
                46          46
                47          47
                48          48
                49          49
                50          50
                51          51
                52          52
                53          53
                54          54
                55          55
                56          56
                57          57
                58          58
                59          59
                60          60
                61          61
                62          62
                63          63
                64          64
                65          65
                66          66
                67          67
                68          68
                69          69
                70          70
                71          71
                72          72
                73          73
                74          74
                75          75
                76          76
                77          77
                78          78
                79          79
                80          80
                81          81
                82          82
                83          83
                84          84
                85          85
                86          86
                87          87
                88          88
                89          89
                90          90
                91          91
                92          92
                93          93
                94          94
                95          95
                96          96
                97          97
                98          98
                99          99
               100         100
               101         101
               102         102
               103         103
               104         104
               105         105
               106         106
               107         107
               108         108
               109         109
               110         110
               111         111
               112         112
               113         113
               114         114
               115         115
               116         116
               117         117
               118         118
               119         119
               120         120
               121         121
               122         122
               123         123
               124         124
               125         125
               126         126
               127         127
               128         128
               129         129
               130         130
               131         131
               132         132
               133         133
               134         134
               135         135
               136         136
               137         137
               138         138
               139         139
               140         140
               141         141
               142         142
               143         143
               144         144
               145         145
               146         146
               147         147
               148         148
               149         149
               150         150
               151         151
               152         152
               153         153
               154         154
               155         155
               156         156
               157         157
               158         158
               159         159
               160         160
               161         161
               162         162
               163         163
               164         164
               165         165
               166         166
               167         167
               168         168
               169         169
               170         170
               171         171
               172         172
               173         173
               174         174
               175         175
               176         176
               177         177
               178         178
               179         179
               180         180
               181         181
               182         182
               183         183
               184         184
               185         185
               186         186
               187         187
               188         188
               189         189
               190         190
               191         191
               192         192
               193         193
               194         194
               195         195
               196         196
               197         197
               198         198
               199         199
               200         200
               201         201
               202         202
               203         203
               204         204
               205         205
               206         206
               207         207
               208         208
               209         209
               210         210
               211         211
               212         212
               213         213
               214         214
               215         215
               216         216
               217         217
               218         218
               219         219
               220         220
               221         221
               222         222
               223         223
               224         224
               225         225
               226         226
               227         227
               228         228
               229         229
               230         230
               231         231
               232         232
               233         233
               234         234
               235         235
               236         236
               237         237
               238         238
               239         239
               240         240
               241         241
               242         242
               243         243
               244         244
               245         245
               246         246

----------------------------------------------------------------------------------------

 
 
 KPOINTS: KPOINTS created by Atomic Simulation Env

Automatic generation of k-mesh.
 Grid dimensions read from file:
 generate k-points for:    2    2    1

 Generating k-lattice:

  Cartesian coordinates                     Fractional coordinates (reciprocal lattice)
     0.049307831  0.000000000  0.000000000     0.500000000  0.000000000  0.000000000
     0.000000000  0.056935779  0.000000000     0.000000000  0.500000000  0.000000000
     0.000000000  0.000000000  0.033188271     0.000000000  0.000000000  1.000000000

  Length of vectors
     0.049307831  0.056935779  0.033188271

  Shift w.r.t. Gamma in fractional coordinates (k-lattice)
     0.500000000  0.500000000  0.000000000

 
 Subroutine IBZKPT returns following result:
 ===========================================
 
 Found      2 irreducible k-points:
 
 Following reciprocal coordinates:
            Coordinates               Weight
  0.250000  0.250000  0.000000      2.000000
 -0.250000  0.250000  0.000000      2.000000
 
 Following cartesian coordinates:
            Coordinates               Weight
  0.024654  0.028468  0.000000      2.000000
 -0.024654  0.028468  0.000000      2.000000
 


--------------------------------------------------------------------------------------------------------




 Dimension of arrays:
   k-points           NKPTS =      2   k-points in BZ     NKDIM =      2   number of bands    NBANDS=    874
   number of dos      NEDOS =    301   number of ions     NIONS =    246
   non local maximal  LDIM  =      6   non local SUM 2l+1 LMDIM =     18
   total plane-waves  NPLWV = ******
   max r-space proj   IRMAX =   8746   max aug-charges    IRDMAX=  24571
   dimension x,y,z NGX =    96 NGY =   84 NGZ =  280
   dimension x,y,z NGXF=   192 NGYF=  168 NGZF=  560
   support grid    NGXF=   192 NGYF=  168 NGZF=  560
   ions per type =              96  50 100
   NGX,Y,Z   is equivalent  to a cutoff of  15.74, 15.90, 15.45 a.u.
   NGXF,Y,Z  is equivalent  to a cutoff of  31.48, 31.80, 30.90 a.u.

 SYSTEM =  unknown system                          
 POSCAR =  Cu O  H                                 

 Startparameter for this run:
   NWRITE =      2    write-flag & timer
   PREC   = accura    normal or accurate (medium, high low for compatibility)
   ISTART =      0    job   : 0-new  1-cont  2-samecut
   ICHARG =      2    charge: 1-file 2-atom 10-const
   ISPIN  =      1    spin polarized calculation?
   LNONCOLLINEAR =      F non collinear calculations
   LSORBIT =      F    spin-orbit coupling
   INIWAV =      1    electr: 0-lowe 1-rand  2-diag
   LASPH  =      T    aspherical Exc in radial PAW
 Electronic Relaxation 1
   ENCUT  =  800.0 eV  58.80 Ry    7.67 a.u.  23.39 20.25 69.49*2*pi/ulx,y,z
   ENINI  =  800.0     initial cutoff
   ENAUG  = 1000.0 eV  augmentation charge cutoff
   NELM   =    160;   NELMIN=  2; NELMDL= -5     # of ELM steps 
   EDIFF  = 0.1E-06   stopping-criterion for ELM
   LREAL  =      T    real-space projection
   NLSPLINE    = F    spline interpolate recip. space projectors
   LCOMPAT=      F    compatible to vasp.4.4
   GGA_COMPAT  = T    GGA compatible to vasp.4.4-vasp.4.6
   LMAXPAW     = -100 max onsite density
   LMAXMIX     =    2 max onsite mixed and CHGCAR
   VOSKOWN=      0    Vosko Wilk Nusair interpolation
   ROPT   =   -0.00025  -0.00025  -0.00025
 Ionic relaxation
   EDIFFG = 0.1E-05   stopping-criterion for IOM
   NSW    =      0    number of steps for IOM
   NBLOCK =      1;   KBLOCK =      1    inner block; outer block 
   IBRION =     -1    ionic relax: 0-MD 1-quasi-New 2-CG
   NFREE  =      0    steps in history (QN), initial steepest desc. (CG)
   ISIF   =      2    stress and relaxation
   IWAVPR =     10    prediction:  0-non 1-charg 2-wave 3-comb
   ISYM   =      2    0-nonsym 1-usesym 2-fastsym
   LCORR  =      T    Harris-Foulkes like correction to forces

   POTIM  = 0.5000    time-step for ionic-motion
   TEIN   =    0.0    initial temperature
   TEBEG  =    0.0;   TEEND  =   0.0 temperature during run
   SMASS  =  -3.00    Nose mass-parameter (am)
   estimated Nose-frequenzy (Omega)   =  0.10E-29 period in steps = 0.13E+47 mass=  -0.235E-26a.u.
   SCALEE = 1.0000    scale energy and forces
   NPACO  =    256;   APACO  = 10.0  distance and # of slots for P.C.
   PSTRESS=    0.0 pullay stress

  Mass of Ions in am
   POMASS =  63.55 16.00  1.00
  Ionic Valenz
   ZVAL   =  11.00  6.00  1.00
  Atomic Wigner-Seitz radii
   RWIGS  =  -1.00 -1.00 -1.00
  virtual crystal weights 
   VCA    =   1.00  1.00  1.00
   NELECT =    1456.0000    total number of electrons
   NUPDOWN=      -1.0000    fix difference up-down

 DOS related values:
   EMIN   =  10.00;   EMAX   =-10.00  energy-range for DOS
   EFERMI =   0.00;   METHOD = LEGACY      
   ISMEAR =     0;   SIGMA  =   0.10  broadening in eV -4-tet -1-fermi 0-gaus

 Electronic relaxation 2 (details)
   IALGO  =     68    algorithm
   LDIAG  =      T    sub-space diagonalisation (order eigenvalues)
   LSUBROT=      F    optimize rotation matrix (better conditioning)
   TURBO    =      0    0=normal 1=particle mesh
   IRESTART =      0    0=no restart 2=restart with 2 vectors
   NREBOOT  =      0    no. of reboots
   NMIN     =      0    reboot dimension
   EREF     =   0.00    reference energy to select bands
   IMIX   =      4    mixing-type and parameters
     AMIX     =   0.40;   BMIX     =  1.00
     AMIX_MAG =   1.60;   BMIX_MAG =  1.00
     AMIN     =   0.10
     WC   =   100.;   INIMIX=   1;  MIXPRE=   1;  MAXMIX= -45

 Intra band minimization:
   WEIMIN = 0.0000     energy-eigenvalue tresh-hold
   EBREAK =  0.29E-10  absolut break condition
   DEPER  =   0.30     relativ break condition  

   TIME   =   0.40     timestep for ELM

  volume/ion in A,a.u.               =      10.91        73.61
  Fermi-wavevector in a.u.,A,eV,Ry     =   1.335295  2.523342 24.259360  1.783013
  Thomas-Fermi vector in A             =   2.464010
 
 Write flags
   LWAVE        =      T    write WAVECAR
   LDOWNSAMPLE  =      F    k-point downsampling of WAVECAR
   LCHARG       =      T    write CHGCAR
   LVTOT        =      F    write LOCPOT, total local potential
   LVHAR        =      T    write LOCPOT, Hartree potential only
   WRT_POTENTIAL=  hartree ionic  ! write potential to hdf5 file
   LELF         =      F    write electronic localiz. function (ELF)
   LORBIT       =      0    0 simple, 1 ext, 2 COOP (PROOUT), +10 PAW based schemes


 Dipole corrections
   LMONO      =      F    monopole corrections only (constant potential shift)
   LDIPOL     =      F    correct potential (dipole corrections)
   IDIPOL     =      0    1-x, 2-y, 3-z, 4-all directions 
   EPSILON    =  1.0000000 bulk dielectric constant
   LVACPOTAV  =      F  vacuum potentials using an averaging scheme for the charge density
   VACPOTFLAT =  0.1000000 required flatness to determine vacuum potential
 Exchange correlation treatment:
   METAGGA = R2SCAN    functional components
   XC_C    = 1    coefficients multiplying the functional components
   LIBXC   =     F    Libxc                    
   VOSKOWN =     0    Vosko Wilk Nusair interpolation
   LHFCALC =     F    Hartree Fock is set to
   LHFONE  =     F    Hartree Fock one center treatment
   AEXX    =    0.0000 exact exchange contribution

 Parameters of functionals:
   R2SCAN:
     No parameter
 
 Accuracy and mixing parameters for tau-dependent meta-GGA functionals:
   LMAXTAU = 6
   LMIXTAU = T
 
 Van der Waals corrections
   IVDW    =     0    specifies the selected vdW correction

 Linear response parameters
   LEPSILON=     F    determine dielectric tensor
   LRPA    =     F    only Hartree local field effects (RPA)
   LNABLA  =     F    use nabla operator in PAW spheres
   LVEL    =     F    velocity operator in full k-point grid
   CSHIFT  =0.1000    complex shift for real part using Kramers Kronig
   OMEGAMAX=  -1.0    maximum frequency
   DEG_THRESHOLD= 0.2000000E-02 threshold for treating states as degnerate
   RTIME   =   -0.100 relaxation time in fs
  (WPLASMAI=    0.000 imaginary part of plasma frequency in eV, 0.658/RTIME)
   DFIELD  = 0.0000000 0.0000000 0.0000000 field for delta impulse in time
 
  Optional k-point grid parameters
   LKPOINTS_OPT  =     F    use optional k-point grid
   KPOINTS_OPT_MODE=     1    mode for optional k-point grid
 
 Orbital magnetization related:
   ORBITALMAG=     F  switch on orbital magnetization
   LCHIMAG   =     F  perturbation theory with respect to B field
   DQ        =  0.001000  dq finite difference perturbation B field
   LLRAUG    =     F  two centre corrections for induced B field
   LBONE     =     F  B-component reconstruction in AE one-centre
   LVGVCALC  =     T  calculate vGv susceptibility
   LVGVAPPL  =     F  apply vGv susceptibility instead of pGv for G=0

 Random number generation:
   RANDOM_GENERATOR = DEFAULT
   PCG_SEED         = not used


--------------------------------------------------------------------------------------------------------


 Static calculation
 charge density and potential will be updated during run
 non-spin polarized calculation
 RMM-DIIS sequential band-by-band and
  variant of blocked Davidson during initial phase
 perform sub-space diagonalisation
    before iterative eigenvector-optimisation
 modified Broyden-mixing scheme, WC =      100.0
 initial mixing is a Kerker type mixing with AMIX =  0.4000 and BMIX =      1.0000
 Hartree-type preconditioning will be used
 using additional bands           146
 real space projection scheme for non local part
 use partial core corrections
 calculate Harris-corrections to forces 
   (improved forces if not selfconsistent)
 use gradient corrections 
 use of overlap-Matrix (Vanderbilt PP)
 Gauss-broadening in eV      SIGMA  =   0.10


--------------------------------------------------------------------------------------------------------


  energy-cutoff  :      800.00
  volume of cell :     2683.21
      direct lattice vectors                 reciprocal lattice vectors
    10.140377178  0.000000000  0.000000000     0.098615661  0.000000000  0.000000000
     0.000000000  8.781824240  0.000000000     0.000000000  0.113871557  0.000000000
     0.000000000  0.000000000 30.131127158     0.000000000  0.000000000  0.033188271

  length of vectors
    10.140377178  8.781824240 30.131127158     0.098615661  0.113871557  0.033188271


 
 k-points in units of 2pi/SCALE and weight: KPOINTS created by Atomic Simulation Env
   0.02465392  0.02846789  0.00000000       0.500
  -0.02465392  0.02846789  0.00000000       0.500
 
 k-points in reciprocal lattice and weights: KPOINTS created by Atomic Simulation Env
   0.25000000  0.25000000  0.00000000       0.500
  -0.25000000  0.25000000  0.00000000       0.500
 
 position of ions in fractional coordinates (direct lattice) 
   0.69178393  0.11942280  0.32100492
   0.92766964  0.12514484  0.33262280
   0.18274665  0.12553087  0.33313390
   0.46462374  0.12022901  0.33332640
   0.80988605  0.38007593  0.32801494
   0.06307566  0.37838380  0.32866344
   0.31838263  0.37399633  0.32928971
   0.57589081  0.37519425  0.33307748
   0.92840629  0.63401406  0.33030261
   0.17550531  0.63352669  0.32770895
   0.43989389  0.62773290  0.33214489
   0.68800498  0.63495236  0.32389163
   0.05800435  0.88086140  0.32604257
   0.32323847  0.89769389  0.32573723
   0.57698446  0.87582828  0.32298759
   0.81177848  0.88085685  0.32559320
   0.56537147  0.20470007  0.39835217
   0.81018880  0.22859715  0.39653678
   0.05561696  0.20417740  0.39581327
   0.30809110  0.20518971  0.39832894
   0.68934024  0.46532587  0.39816964
   0.93959424  0.46573922  0.39715408
   0.18714097  0.46174916  0.39670604
   0.43289218  0.45865641  0.39765190
   0.80795614  0.70547187  0.39828248
   0.04764123  0.70814672  0.39527894
   0.30623417  0.70936059  0.39925821
   0.56870074  0.71416255  0.39596594
   0.92951769  0.96603619  0.39871724
   0.19241395  0.95060431  0.39646044
   0.43417714  0.94773475  0.39652682
   0.68722493  0.96831590  0.39149880
   0.56249979  0.04166663  0.46565135
   0.81250035  0.04166663  0.46565135
   0.06250004  0.04166663  0.46565135
   0.31250021  0.04166663  0.46565135
   0.68750007  0.29166719  0.46565135
   0.93749964  0.29166719  0.46565135
   0.18749993  0.29166719  0.46565135
   0.43750049  0.29166719  0.46565135
   0.81250035  0.54166650  0.46565135
   0.06250004  0.54166650  0.46565135
   0.31250021  0.54166650  0.46565135
   0.56249979  0.54166650  0.46565135
   0.93749964  0.79166695  0.46565135
   0.18749993  0.79166695  0.46565135
   0.43750049  0.79166695  0.46565135
   0.68750007  0.79166695  0.46565135
   0.68750007  0.12500022  0.53434775
   0.93749964  0.12500022  0.53434775
   0.18749993  0.12500022  0.53434775
   0.43750049  0.12500022  0.53434775
   0.81250035  0.37499953  0.53434775
   0.06250004  0.37499953  0.53434775
   0.31250021  0.37499953  0.53434775
   0.56249979  0.37499953  0.53434775
   0.93749964  0.62499998  0.53434775
   0.18749993  0.62499998  0.53434775
   0.43750049  0.62499998  0.53434775
   0.68750007  0.62499998  0.53434775
   0.06250004  0.87500043  0.53434775
   0.31250021  0.87500043  0.53434775
   0.56249979  0.87500043  0.53434775
   0.81250035  0.87500043  0.53434775
   0.57727537  0.22030730  0.60502217
   0.82038270  0.20657098  0.60381080
   0.06502086  0.21121580  0.60288817
   0.32369210  0.20330742  0.60255296
   0.68471812  0.46238229  0.60031939
   0.94007746  0.44772247  0.60053180
   0.17313557  0.46802463  0.60644927
   0.42846335  0.47297234  0.60347228
   0.81723883  0.71655955  0.60092342
   0.04690062  0.70771059  0.60564611
   0.30953188  0.71792031  0.60613066
   0.56122863  0.70706608  0.60610743
   0.93180262  0.96541673  0.60584856
   0.18630668  0.95280887  0.60064464
   0.44841922  0.96325772  0.60464383
   0.69255215  0.95128982  0.60302424
   0.56897982  0.03583720  0.67029354
   0.81534738  0.05226739  0.67038647
   0.06447482  0.04797910  0.67025704
   0.30430130  0.04347161  0.66786748
   0.70539289  0.31757297  0.67139539
   0.95802255  0.30112308  0.67013424
   0.19767707  0.29387060  0.66933772
   0.45678183  0.29898685  0.67425954
   0.81913225  0.55497922  0.67083783
   0.06202984  0.55207664  0.67509589
   0.30832088  0.54313317  0.67629398
   0.56201460  0.55419920  0.67317429
   0.93692077  0.81120048  0.67292205
   0.18510455  0.79955939  0.67664246
   0.44541933  0.79683786  0.67372189
   0.69712594  0.78858103  0.67346302
   0.02311038  0.30787453  0.88377378
   0.46125405  0.38922095  0.88093286
   0.85097821  0.89483344  0.78225086
   0.92714993  0.56814391  0.92513300
   0.99054501  0.44682288  0.79673090
   0.27745714  0.61196169  0.89498145
   0.95053072  0.86211928  0.89463961
   0.12636019  0.05862837  0.92583327
   0.54767884  0.10829834  0.00370388
   0.28011187  0.27421865  0.81229620
   0.38565824  0.15657225  0.92467168
   0.32771365  0.03336494  0.05601018
   0.38558921  0.41998449  0.22482996
   0.98653620  0.28320198  0.10930092
   0.02645316  0.35026549  0.01668929
   0.41658805  0.27000199  0.09448999
   0.69683404  0.40563440  0.20761155
   0.78661867  0.58842785  0.03298151
   0.35399965  0.07978365  0.22188748
   0.86228252  0.97941723  0.10446440
   0.08084108  0.64045919  0.07869935
   0.12612943  0.42104236  0.22893734
   0.34634116  0.59256709  0.78070428
   0.13404531  0.86652383  0.01216556
   0.70664433  0.84649952  0.96492242
   0.92671405  0.53395170  0.17087645
   0.76108313  0.07255679  0.88903080
   0.79308293  0.89876315  0.21721624
   0.63959455  0.93371602  0.14967147
   0.25138611  0.40058647  0.95895185
   0.53516057  0.66173267  0.21626307
   0.00859738  0.83664849  0.17592903
   0.41312467  0.75943219  0.12084314
   0.32627583  0.52611506  0.06120083
   0.52372904  0.33911747  0.79429820
   0.11353325  0.75245414  0.83675927
   0.91006871  0.09018684  0.01566443
   0.49186435  0.88385622  0.77352566
   0.61030176  0.37433339  0.04307804
   0.26019644  0.76333684  0.20769850
   0.65380803  0.69743482  0.82399174
   0.98780349  0.15240569  0.75863076
   0.12381295  0.12608998  0.19299842
   0.50335307  0.07686922  0.84845814
   0.43155002  0.60455207  0.98585758
   0.72898275  0.15826552  0.76868349
   0.67509816  0.33001344  0.94486674
   0.53711414  0.21028205  0.17444186
   0.22350253  0.98844611  0.76818899
   0.50515379  0.81199985  0.90128723
   0.01896281  0.32610764  0.85271951
   0.00060381  0.40520624  0.89612313
   0.39850885  0.47345971  0.88213759
   0.49198170  0.38327572  0.84967946
   0.01687255  0.39630604  0.04546760
   0.93371971  0.95884748  0.78279514
   0.84738169  0.53407582  0.94138861
   0.93215763  0.67824518  0.91762913
   0.05072947  0.53522251  0.79738139
   0.96090804  0.43634100  0.76664241
   0.08671167  0.14021005  0.90951128
   0.23824755  0.54279611  0.91530263
   0.40940883  0.36252491  0.24977891
   0.02388895  0.92531686  0.90784523
   0.45125639  0.13398355  0.94710695
   0.21433522  0.09065451  0.92930476
   0.62931190  0.04917475  0.00817669
   0.26883517  0.17481106  0.79484580
   0.27868490  0.23752696  0.84222538
   0.77346926  0.98055253  0.11416798
   0.41693913  0.24269787  0.90466911
   0.30866209  0.49426746  0.78628655
   0.34766064  0.11518905  0.07459528
   0.35155596  0.94392689  0.07229301
   0.20891826  0.64251001  0.87559287
   0.42922072  0.52521206  0.22457175
   0.92075964  0.20627605  0.11634646
   0.96007671  0.36249302  0.13150587
   0.87377519  0.93886302  0.89484538
   0.97540750  0.40959144  0.99620864
   0.46106668  0.26227011  0.12381117
   0.63727807  0.32367535  0.19520677
   0.67296116  0.42451203  0.23791841
   0.81391746  0.65531031  0.05466274
   0.71934405  0.52244954  0.04738123
   0.33944891  0.09921321  0.25367753
   0.27363775  0.10925680  0.20716019
   0.37287469  0.37102883  0.08895718
   0.90972652  0.94258548  0.13139568
   0.08381720  0.72803097  0.05709511
   0.06513229  0.68622872  0.10571559
   0.47888948  0.05889186  0.02282387
   0.22767496  0.42398708  0.22748601
   0.09934344  0.42576234  0.26122687
   0.29961213  0.63636095  0.75586950
   0.19791966  0.94513278  0.01897164
   0.78281506  0.87216503  0.94869667
   0.99397683  0.49281446  0.19255104
   0.73851691  0.78562037  0.98789534
   0.05432875  0.91624585  0.00144031
   0.84672196  0.48527161  0.18097597
   0.82749683  0.14318665  0.87501207
   0.68363729  0.09091186  0.87106931
   0.87663899  0.90265300  0.20068084
   0.57049850  0.86101359  0.14108334
   0.29263310  0.30204658  0.94700407
   0.79641614  0.92534191  0.24800002
   0.19902711  0.36916020  0.98438734
   0.54419080  0.71957373  0.24385181
   0.60567865  0.59311025  0.20949366
   0.10607396  0.82304426  0.18131051
   0.38760787  0.66970823  0.10233603
   0.97470043  0.73383500  0.18035270
   0.39137203  0.74620373  0.15189608
   0.50062832  0.52992407  0.99494071
   0.23816372  0.55981763  0.06750129
   0.35224035  0.58046937  0.03566810
   0.50888048  0.42039101  0.77292163
   0.02965689  0.78372669  0.85107005
   0.91915910  0.05794832  0.04567038
   0.13432242  0.84443958  0.82069615
   0.43110724  0.29324431  0.79970457
   0.94471535  0.19436622  0.01528323
   0.50576718  0.90280217  0.74165164
   0.52677725  0.78527989  0.78280178
   0.67009243  0.90472546  0.18022326
   0.22972321  0.70386742  0.23059509
   0.72052645  0.76613695  0.81408504
   0.30313961  0.85671152  0.21671642
   0.64100673  0.32429595  0.01774713
   0.63209878  0.73504546  0.85351935
   0.89118480  0.17582793  0.75158157
   0.03221744  0.24361567  0.76950988
   0.84409188  0.88436181  0.75043990
   0.08661049  0.16243891  0.16467688
   0.52147863  0.02644154  0.81941176
   0.10770803  0.21698681  0.21187425
   0.49228938  0.98949549  0.86848726
   0.35795907  0.54551764  0.97620643
   0.53910421  0.30403250  0.05304880
   0.69775511  0.05898364  0.77593513
   0.64908434  0.23147355  0.77609111
   0.71152284  0.23882282  0.93428300
   0.62326774  0.38323017  0.92074219
   0.46670848  0.17463570  0.19600528
   0.57759982  0.11577207  0.16237063
   0.29325438  0.91622194  0.75933767
   0.15849115  0.98797721  0.74416732
   0.55123591  0.83727137  0.92893969
   0.43574711  0.74120591  0.90900682
 
 position of ions in cartesian coordinates  (Angst):
   7.01495000  1.04875000  9.67224000
   9.40692000  1.09900000 10.02230000
   1.85312000  1.10239000 10.03770000
   4.71146000  1.05583000 10.04350000
   8.21255000  3.33776000  9.88346000
   0.63961100  3.32290000  9.90300000
   3.22852000  3.28437000  9.92187000
   5.83975000  3.29489000 10.03600000
   9.41439000  5.56780000  9.95239000
   1.77969000  5.56352000  9.87424000
   4.46069000  5.51264000 10.00790000
   6.97663000  5.57604000  9.75922000
   0.58818600  7.73557000  9.82403000
   3.27776000  7.88339000  9.81483000
   5.85084000  7.69137000  9.73198000
   8.23174000  7.73553000  9.81049000
   5.73308000  1.79764000 12.00280000
   8.21562000  2.00750000 11.94810000
   0.56397700  1.79305000 11.92630000
   3.12416000  1.80194000 12.00210000
   6.99017000  4.08641000 11.99730000
   9.52784000  4.09004000 11.96670000
   1.89768000  4.05500000 11.95320000
   4.38969000  4.02784000 11.98170000
   8.19298000  6.19533000 12.00070000
   0.48310000  6.21882000 11.91020000
   3.10533000  6.22948000 12.03010000
   5.76684000  6.27165000 11.93090000
   9.42566000  8.48356000 12.01380000
   1.95115000  8.34804000 11.94580000
[...]
      0.63377      0.36591     14.03060         0.082248     -0.027509     -0.059006
      3.16887      0.36591     14.03060         0.014711     -0.091631      0.029103
      6.97151      2.56137     14.03060        -0.033920      0.011443      0.144538
      9.50660      2.56137     14.03060         0.044270     -0.011923     -0.015145
      1.90132      2.56137     14.03060        -0.117393      0.008159     -0.026953
      4.43642      2.56137     14.03060        -0.003670     -0.039099      0.061012
      8.23906      4.75682     14.03060         0.048210     -0.061120      0.206542
      0.63377      4.75682     14.03060         0.084693      0.037506      0.001843
      3.16887      4.75682     14.03060        -0.044099     -0.090133      0.167921
      5.70396      4.75682     14.03060        -0.066238      0.050740     -0.021628
      9.50660      6.95228     14.03060        -0.001207      0.011559      0.037737
      1.90132      6.95228     14.03060        -0.206450     -0.037196      0.086183
      4.43642      6.95228     14.03060         0.072784     -0.060184      0.062035
      6.97151      6.95228     14.03060        -0.044711      0.152404     -0.097988
      6.97151      1.09773     16.10050         0.032804      0.014632      0.132552
      9.50660      1.09773     16.10050         0.045736     -0.013040      0.015562
      1.90132      1.09773     16.10050         0.048024      0.071579     -0.033180
      4.43642      1.09773     16.10050         0.165593      0.015751      0.040884
      8.23906      3.29318     16.10050        -0.086558     -0.100660     -0.166637
      0.63377      3.29318     16.10050         0.171874      0.003907     -0.168159
      3.16887      3.29318     16.10050        -0.097511      0.063386      0.243543
      5.70396      3.29318     16.10050        -0.186389      0.012514      0.013377
      9.50660      5.48864     16.10050         0.059108     -0.027953     -0.085367
      1.90132      5.48864     16.10050        -0.010551      0.061072      0.373722
      4.43642      5.48864     16.10050        -0.018217      0.139485      0.144420
      6.97151      5.48864     16.10050        -0.065889      0.178228     -0.048052
      0.63377      7.68410     16.10050        -0.144939     -0.043697      0.105736
      3.16887      7.68410     16.10050         0.162304     -0.001624      0.104949
      5.70396      7.68410     16.10050         0.000563     -0.039883      0.119255
      8.23906      7.68410     16.10050         0.072783      0.176200     -0.173116
      5.85379      1.93470     18.23000        -0.543026     -0.495183      0.010279
      8.31899      1.81407     18.19350        -0.424707      0.341176     -0.099914
      0.65934      1.85486     18.16570         0.499171     -0.421641     -0.218317
      3.28236      1.78541     18.15560        -0.238699      0.565498      0.074330
      6.94330      4.06056     18.08830         0.329665      0.277318      0.581538
      9.53274      3.93182     18.09470        -0.688752      0.745136      0.484037
      1.75566      4.11011     18.27300         0.986370     -0.116453     -0.309283
      4.34478      4.15356     18.18330         0.071814     -0.677646      0.346237
      8.28711      6.29270     18.10650        -0.634282     -0.637945      0.398076
      0.47559      6.21499     18.24880         0.974774      0.240110     -0.107816
      3.13877      6.30465     18.26340        -0.068091     -0.248833      0.027700
      5.69107      6.20933     18.26270         0.176946      0.288360     -0.469546
      9.44883      8.47812     18.25490         0.722753     -0.230137     -0.711247
      1.88922      8.36740     18.09810        -0.144838      0.300880      0.444484
      4.54714      8.45916     18.21860        -0.373614     -0.185127     -0.330726
      7.02274      8.35406     18.16980        -0.340737      0.453011      0.048257
      5.76967      0.31472     20.19670         0.035787      0.540803      0.108017
      8.26793      0.45900     20.19950        -0.343675      0.126387      0.401085
      0.65380      0.42134     20.19560         0.004357      0.046145      0.125115
      3.08573      0.38176     20.12360         0.722630     -0.088943      0.261623
      7.15295      2.78887     20.22990        -0.232324     -0.608706     -0.018884
      9.71471      2.64441     20.19190        -0.678488      0.033443      0.194944
      2.00452      2.58072     20.16790         0.257751      0.125783      0.108151
      4.63194      2.62565     20.31620        -0.462667     -0.143253     -0.458299
      8.30631      4.87373     20.21310         0.212041     -0.113759     -0.281598
      0.62901      4.84824     20.34140         0.078241      0.076796     -0.094656
      3.12649      4.76970     20.37750         0.308203      0.189981     -0.383003
      5.69904      4.86688     20.28350         0.172203     -0.471718     -0.105002
      9.50073      7.12382     20.27590         0.164144     -0.628202      0.101436
      1.87703      7.02159     20.38800         0.097985     -0.256446     -0.571817
      4.51672      6.99769     20.30000        -0.533928     -0.029512     -0.168411
      7.06912      6.92518     20.29220        -0.298895      0.448905     -0.257852
      0.23435      2.70370     26.62910         0.127943     -0.951658     -0.096129
      4.67729      3.41807     26.54350         0.533068      0.168174     -0.931841
      8.62924      7.85827     23.57010         1.679818      0.535473     -0.279865
      9.40165      4.98934     27.87530        -0.203720     -0.551586      0.310828
     10.04450      3.92392     24.00640         0.823484      0.406484     -0.014912
      2.81352      5.37414     26.96680         1.354797     -0.051238     -0.041230
      9.63874      7.57098     26.95650        -0.947210      1.788904      0.683539
      1.28134      0.51486     27.89640        -1.535739     -0.846548     -0.034149
      5.55367      0.95106      0.11160        -0.120450     -1.218853      0.670871
      2.84044      2.40814     24.47540        -0.433114     -1.885010     -1.889450
      3.91072      1.37499     27.86140        -0.639380      0.538930     -0.247629
      3.32314      0.29301      1.68765        -0.514598     -2.265301     -1.897073
      3.91002      3.68823      6.77438        -0.873234      1.637509     -1.263586
     10.00385      2.48703      3.29336        -0.614757      0.652720      1.936618
      0.26824      3.07597      0.50287         0.495034     -0.035287     -0.426795
      4.22436      2.37111      2.84709        -0.171101      0.456068      0.730727
      7.06616      3.56221      6.25557         0.321952      0.414163     -0.180138
      7.97661      5.16747      0.99377        -1.140453     -1.536591     -1.354360
      3.58969      0.70065      6.68572         1.327511     -0.621203      1.774379
      8.74387      8.60107      3.14763         2.058801     -0.032016      0.781174
      0.81976      5.62440      2.37130         0.357677     -0.004195     -2.876936
      1.27900      3.69752      6.89814         0.155983      0.053447      1.213036
      3.51203      5.20382     23.52350         0.509951      0.309023     -0.411328
      1.35927      7.60966      0.36656        -0.596169     -0.603365      0.103718
      7.16564      7.43381     29.07420        -1.347628      0.825139     -0.659696
      9.39723      4.68907      5.14870         1.496373     -0.651094      1.113583
      7.71767      0.63718     26.78750         1.734273      1.505891     -0.756576
      8.04216      7.89278      6.54497        -1.085267     -0.288561     -0.316457
      6.48573      8.19973      4.50977        -0.669895     -0.369384      0.877165
      2.54915      3.51788     28.89430         0.321886     -1.431481     -0.370138
      5.42673      5.81122      6.51625        -1.554159      1.001211      0.366144
      0.08718      7.34730      5.30094         1.342817     -0.573413      0.026985
      4.18924      6.66920      3.64114         0.193570      0.099129     -0.359585
      3.30856      4.62025      1.84405        -0.248296     -0.650925      2.213447
      5.31081      2.97807     23.93310        -0.608465     -0.536442     -0.783586
      1.15127      6.60792     25.21250        -0.845620      0.030873     -0.656566
      9.22844      0.79201      0.47199        -0.439764     -0.563988     -0.883147
      4.98769      7.76187     23.30720        -0.447359      0.730930     -0.899536
      6.18869      3.28733      1.29799        -1.147362      0.305404      1.397869
      2.63849      6.70349      6.25819         0.640195      1.245248     -2.749265
      6.62986      6.12475     24.82780        -0.486178     -0.102754     -0.025094
     10.01670      1.33840     22.85840        -0.705517      0.162862     -1.135181
      1.25551      1.10730      5.81526        -0.844449      1.283244      0.006106
      5.10419      0.67505     25.56500         0.827873     -0.707257     -1.371083
      4.37608      5.30907     29.70500         1.939496      0.337494      0.770295
      7.39216      1.38986     23.16130        -1.872395      2.300940     -0.285074
      6.84575      2.89812     28.46990        -1.133748      2.736465     -0.193792
      5.44654      1.84666      5.25613        -0.231807     -0.573600      0.325225
      2.26640      8.68036     23.14640         0.179543     -0.426153     -0.512662
      5.12245      7.13084     27.15680         0.545372      0.392860      0.018385
      0.19229      2.86382     25.69340        -0.029963      0.123323     -0.808277
      0.00612      3.55845     27.00120        -0.416843      0.847704      0.772555
      4.04103      4.15784     26.57980        -0.169102      0.435785      0.076652
      4.98888      3.36586     25.60180        -0.039034      0.137923      1.008485
      0.17109      3.48029      1.36999        -0.216719      0.185500      0.273549
      9.46827      8.42043     23.58650        -1.458987     -0.657323      0.505554
      8.59277      4.69016     28.36510         0.769726      1.004781     -0.792268
      9.45243      5.95623     27.64920        -0.643035     -0.716866      0.473367
      0.51442      4.70023     24.02600        -0.634795     -0.396718      0.168179
      9.74397      3.83187     23.09980        -0.229681      0.475756     -0.172798
      0.87929      1.23130     27.40460        -0.359090      0.844809     -0.145011
      2.41592      4.76674     27.57910        -0.462314     -0.716112      1.085820
      4.15156      3.18363      7.52612         0.788326     -0.502663      1.240923
      0.24224      8.12597     27.35440        -0.179824     -0.662422     -0.169644
      4.57591      1.17662     28.53740         0.303440      0.183291      0.184418
      2.17344      0.79611     28.00100         1.847087      0.007828      0.141419
      6.38146      0.43184      0.24637        -0.814236      0.348479     -0.400414
      2.72609      1.53516     23.94960        -0.020009      1.419604      0.886774
      2.82597      2.08592     25.37720         0.127780      0.053244      0.695987
      7.84327      8.61104      3.44001        -1.334198     -0.199583      0.305064
      4.22792      2.13133     27.25870         0.265865     -0.817009      0.708986
      3.12995      4.34057     23.69170        -0.490768     -0.330415      0.212676
      3.52541      1.01157      2.24764         0.502519      2.175409      1.395065
      3.56491      8.28940      2.17827         0.015981     -0.458805      0.356158
      2.11851      5.64241     26.38260        -0.647314      0.792304     -0.943207
      4.35246      4.61232      6.76660        -0.111243     -1.060966      0.117407
      9.33685      1.81148      3.50565         0.107165     -0.385625     -0.733088
      9.73554      3.18335      3.96242         0.602678     -0.290302     -1.167958
      8.86041      8.24493     26.96270         1.051454     -1.428297     -0.407199
      9.89100      3.59696     30.01689        -0.109546      0.557432      0.004887
      4.67539      2.30321      3.73057        -0.575302      0.474417     -0.679642
      6.46224      2.84246      5.88180        -0.173581      0.086087      0.107444
      6.82408      3.72799      7.16875         0.045180     -0.437654      0.272430
      8.25343      5.75482      1.64705         0.934967      1.506409      1.754582
      7.29442      4.58806      1.42765         0.414792      0.294044     -0.580833
      3.44214      0.87127      7.64359         0.095677     -0.155427     -0.699741
      2.77479      0.95947      6.24197        -1.423770      0.209866     -0.785645
      3.78109      3.25831      2.68038         0.713340     -0.811522      0.147071
      9.22497      8.27762      3.95910        -0.304027      0.181560     -1.271596
      0.84994      6.39344      1.72034         0.182878     -0.775428      0.460913
      0.66047      6.02634      3.18533        -0.502709      0.979327      2.196625
      4.85612      0.51718      0.68771         0.638563      0.482079     -0.627296
      2.30871      3.72338      6.85441        -0.812849      0.028777      0.101798
      1.00738      3.73897      7.87106         0.635228      0.076912     -1.513735
      3.03818      5.58841     22.77520        -0.196310     -0.112133      0.137180
      2.00698      8.29999      0.57164        -0.143289      0.228340      0.120382
      7.93804      7.65920     28.58530         0.896854      0.435619     -0.581691
     10.07930      4.32781      5.80178        -0.783581      0.541890     -1.013506
      7.48884      6.89918     29.76640         0.401827     -1.426245      1.494897
      0.55091      8.04631      0.04340         0.474005      0.303065      0.045173
      8.58608      4.26157      5.45301        -0.616523      0.035222      0.179161
      8.39113      1.25744     26.36510        -0.984535     -0.825990      0.930994
      6.93234      0.79837     26.24630        -0.831064     -0.256102     -0.176973
      8.88945      7.92694      6.04674         0.432370      0.148084      0.922744
      5.78507      7.56127      4.25100         0.238020      0.219941     -0.171985
      2.96741      2.65252     28.53430        -0.372700      1.202897      0.729199
      8.07596      8.12619      7.47252         0.618027      0.252134      0.050688
      2.01821      3.24190     29.66070        -0.229203      0.095044     -0.137215
      5.51830      6.31917      7.34753         0.604048     -0.569659     -0.598195
      6.14181      5.20859      6.31228         1.088962     -0.283051      0.076895
      1.07563      7.22783      5.46309        -1.232334      0.513833     -0.023186
      3.93049      5.88126      3.08350         0.171797      0.414296      0.767340
      9.88383      6.44441      5.43423        -0.201931     -0.261793     -0.401299
      3.96866      6.55303      4.57680        -0.337456     -0.560990     -0.470608
      5.07656      4.65370     29.97869        -0.940814      0.718643     -0.397053
      2.41507      4.91622      2.03389        -1.005293      0.180249      0.230452
      3.57185      5.09758      1.07472         1.020739      0.748960     -1.743283
      5.16024      3.69180     23.28900         0.029768      0.040225      0.506980
      0.30073      6.88255     25.64370         0.360130     -0.230282      0.253949
      9.32062      0.50889      1.37610        -0.127530     -0.259126      0.876788
      1.36208      7.41572     24.72850         0.541445     -0.141878     -0.049977
      4.37159      2.57522     24.09600         1.058352      0.507795     -0.127661
      9.57977      1.70689      0.46050         0.337499      0.051409      0.080696
      5.12867      7.92825     22.34680         0.262107     -0.470617      0.685792
      5.34172      6.89619     23.58670         0.331494     -0.214341      0.170033
      6.79499      7.94514      5.43033        -0.066823      0.253721     -1.066851
      2.32948      6.18124      6.94809        -0.627492     -1.083574      2.205256
      7.30641      6.72808     24.52930         0.715204      0.234203     -0.124164
      3.07395      7.52349      6.52991        -0.095873      0.071839      0.512911
      6.50005      2.84791      0.53474         0.699023     -0.723124     -1.721732
      6.40972      6.45504     25.71750        -0.427707     -0.187250      0.100517
      9.03695      1.54409     22.64600         1.316044     -0.143885      1.147021
      0.32670      2.13939     23.18620        -0.371515     -0.175379      0.201896
      8.55941      7.76631     22.61160        -0.317168     -0.358438     -0.206327
      0.87826      1.42651      4.96190         0.410288     -0.325011      0.120029
      5.28799      0.23221     24.68980        -0.464447      0.404287      1.183948
      1.09220      1.90554      6.38401         0.118156     -0.527863     -0.488112
      4.99200      8.68958     26.16850        -0.291005     -0.030887      0.154350
      3.62984      4.79064     29.41420        -0.537627     -1.002458     -0.626937
      5.46672      2.66996      1.59842         0.624158      0.871406      0.192065
      7.07550      0.51798     23.37980         0.095282     -0.664206      0.266542
      6.58196      2.03276     23.38450         1.454427     -1.125442     -0.201239
      7.21511      2.09730     28.15100         0.316660     -1.202637     -0.874095
      6.32017      3.36546     27.74300         0.901714     -1.302526      1.164500
      4.73260      1.53362      5.90586         0.921535      0.207988     -0.929831
      5.85708      1.01669      4.89241        -0.190562      0.071611      0.277879
      2.97371      8.04610     22.87970        -0.260911      0.555891      0.558752
      1.60716      8.67624     22.42260         0.264551      0.093757      0.467029
      5.58974      7.35277     27.99000        -0.115916     -0.407041     -0.281822
      4.41864      6.50914     27.38940        -0.223388      0.018600      0.048228
 -----------------------------------------------------------------------------------
    total drift:                                0.006664      0.011969     -0.044098


--------------------------------------------------------------------------------------------------------



  FREE ENERGIE OF THE ION-ELECTRON SYSTEM (eV)
  ---------------------------------------------------
  free  energy   TOTEN  =     -1809.41893693 eV

  energy  without entropy=    -1809.17197007  energy(sigma->0) =    -1809.29545350
 


--------------------------------------------------------------------------------------------------------


    POTLOK:  cpu time     11.9244: real time     11.9443


--------------------------------------------------------------------------------------------------------


 writing wavefunctions
     LOOP+:  cpu time    955.1703: real time    956.9643
    4ORBIT:  cpu time      0.0000: real time      0.0000

 total amount of memory used by VASP MPI-rank0  3314059. kBytes
=======================================================================

   base      :      30000. kBytes
   nonlr-proj:     188980. kBytes
   fftplans  :     312780. kBytes
   grid      :     814785. kBytes
   one-center:       3825. kBytes
   wavefun   :    1963689. kBytes
 
  
  
 General timing and accounting informations for this job:
 ========================================================
  
                  Total CPU time used (sec):     1022.543
                            User time (sec):      999.001
                          System time (sec):       23.542
                         Elapsed time (sec):     1025.095
  
                   Maximum memory used (kb):     4998672.
                   Average memory used (kb):          N/A
  
                          Minor page faults:      5472394
                          Major page faults:         3908
                 Voluntary context switches:        27027
