246
Lattice="10.140377178 0.0 0.0 0.0 8.78182424 0.0 0.0 0.0 30.131127158" Properties=species:S:1:pos:R:3:initial_charges:R:1:forces:R:3 stress="0.008918417491865078 0.001564328156747499 -0.0003886587732687505 0.001564328156747499 0.008553476453274683 0.002451346467681524 -0.0003886587732687505 0.002451346467681524 0.007412828177501264" free_energy=-1808.15107537 energy=-1809.9678365896568 pbc="T T T"
Cu       7.10376000       1.18262000       9.92275000      -0.07204800      -0.24131100      -0.21732800       0.30421500
Cu       9.51884000       1.14612000       9.88344000       0.01101800       0.27969600      -0.18366500       0.41097300
Cu       1.87674000       1.04836000       9.97680000      -0.03905200       0.27678000       0.20636700      -0.12203400
Cu       4.53134000       1.05738000       9.88060000      -0.03201500      -0.12993100       0.11835100       0.30390400
Cu       8.42079000       3.41315000       9.82774000       0.00027400      -0.30265100      -0.64877800       0.39593800
Cu       0.65852000       3.29721000       9.98641000      -0.03759200       0.37139300      -0.02872200      -0.09431600
Cu       3.16189000       3.20836000       9.95384000       0.02303900       0.19831800       0.12554900       0.07523900
Cu       5.88074000       3.33515000       9.81086000       0.10079400      -0.70432100      -0.23315100      -0.30866800
Cu       9.65264000       5.54678000       9.99729000       0.02044400      -0.14415400      -0.34419900      -0.48202200
Cu       1.93920000       5.46563000       9.93820000       0.01988500       0.28223900       0.01796400      -0.15299700
Cu       4.41326000       5.47651000       9.96725000       0.01192800       0.52329100       0.09764800       0.10485900
Cu       7.14039000       5.41905000       9.90823000      -0.00916800      -0.35955800       1.09571500      -0.17892000
Cu       0.73876000       7.68163000       9.91025000      -0.05184500      -0.01985700       0.12493600       0.25914000
Cu       3.19653000       7.64695000       9.94102000      -0.07800900       0.08935100       0.43357400      -0.21106700
Cu       5.79353000       7.60993000       9.93901000      -0.04147200       0.02597700       0.16489100       0.28318100
Cu       8.43795000       7.64439000       9.94693000      -0.03639500      -0.89349000       0.30316200      -0.18904600
Cu       5.66589000       1.90988000      12.00090000       0.00942800      -0.08452300      -0.02265700      -0.52337000
Cu       8.19558000       1.91349000      12.02740000       0.02876100       0.44290600      -0.06927700      -0.49342500
Cu       0.63149000       1.94193000      12.04080000       0.02231500      -0.37097900      -0.66462200      -0.45472100
Cu       3.05933000       1.79070000      12.00610000       0.01992600       0.84707100       0.72673400      -0.33834100
Cu       6.95784000       4.08682000      11.82860000       0.02711000       0.20904700      -0.57998600       0.83358400
Cu       9.58238000       4.03805000      12.03830000       0.01752300      -0.63455000       0.20470800      -0.38553700
Cu       1.87626000       4.12602000      12.01370000       0.02375300       0.58050400      -0.46004000      -0.28230000
Cu       4.34878000       4.06188000      11.94080000       0.01509500       0.43035800      -0.07668300       0.03973500
Cu       8.36683000       6.19662000      11.98590000       0.01810700      -0.56861900       0.05012600      -0.03548400
Cu       0.74654000       6.23657000      11.98180000       0.02977000      -0.47221900       0.35103000       0.07726100
Cu       3.16365000       6.38128000      11.96340000       0.02266700       0.36225100      -0.77017400       0.21696200
Cu       5.85348000       6.19986000      12.07430000       0.01561300      -0.70365600       0.45195500      -0.90142400
Cu       9.48996000       8.33533000      11.96770000       0.02200100       0.29424700       0.92477500       0.04552900
Cu       1.83654000       8.54118000      12.09290000       0.01235700       0.01729700      -0.75262700      -0.80782700
Cu       4.36538000       8.47008000      11.94680000       0.01534200       0.71427100      -0.00930000       0.08410900
Cu       6.97660000       8.54937000      11.93040000       0.02161600      -0.07603200      -0.59929400       0.05038500
Cu       5.70396000       0.36591000      14.03060000       0.03098600      -0.01476400      -0.01159800      -0.07368400
Cu       8.23906000       0.36591000      14.03060000       0.00518900       0.02238200      -0.03038200       0.01844200
Cu       0.63377000       0.36591000      14.03060000      -0.02108700      -0.30149100       0.09226400       0.40454800
Cu       3.16887000       0.36591000      14.03060000       0.00356800       0.13737800      -0.00129300       0.37693900
Cu       6.97151000       2.56137000      14.03060000       0.02622600      -0.07568600       0.15014200       0.11298800
Cu       9.50660000       2.56137000      14.03060000      -0.02993600      -0.11271600      -0.00113900       0.38601200
Cu       1.90132000       2.56137000      14.03060000       0.01049900       0.06300800       0.10373800       0.30291100
Cu       4.43642000       2.56137000      14.03060000      -0.00603500      -0.10578800       0.07003000       0.05290800
Cu       8.23906000       4.75682000      14.03060000       0.03150800      -0.14993800      -0.09234300      -0.03253900
Cu       0.63377000       4.75682000      14.03060000      -0.02085500       0.02808800       0.09500100       0.41295300
Cu       3.16887000       4.75682000      14.03060000      -0.00030000       0.04068000       0.09618300       0.06865500
Cu       5.70396000       4.75682000      14.03060000       0.00327200      -0.01993300      -0.24825900       0.01139200
Cu       9.50660000       6.95228000      14.03060000       0.00296700       0.10282800      -0.04724600       0.17733700
Cu       1.90132000       6.95228000      14.03060000       0.00302400       0.03913900      -0.02054800       0.26826900
Cu       4.43642000       6.95228000      14.03060000       0.00013800       0.07476100       0.01783700       0.00509900
Cu       6.97151000       6.95228000      14.03060000      -0.00222400       0.26693400       0.16861900       0.17887700
Cu       6.97151000       1.09773000      16.10050000       0.03106300       0.03270000      -0.01286000       0.50251400
Cu       9.50660000       1.09773000      16.10050000      -0.00700700      -0.13544100       0.12410400       0.18827900
Cu       1.90132000       1.09773000      16.10050000       0.00282600       0.03072000       0.11540200       0.02593800
Cu       4.43642000       1.09773000      16.10050000      -0.02665800      -0.12923300       0.19476400      -0.13672400
Cu       8.23906000       3.29318000      16.10050000      -0.00576500      -0.13869500      -0.21221100       0.05645500
Cu       0.63377000       3.29318000      16.10050000      -0.01060600      -0.31793200      -0.04400300      -0.30941300
Cu       3.16887000       3.29318000      16.10050000      -0.00571000      -0.14240400      -0.10930700       0.01557200
Cu       5.70396000       3.29318000      16.10050000      -0.01270300      -0.20626000      -0.10288000      -0.07037300
Cu       9.50660000       5.48864000      16.10050000       0.00089600      -0.12457900       0.02869700      -0.00093900
Cu       1.90132000       5.48864000      16.10050000      -0.00334200      -0.13686300       0.07779100      -0.15979600
Cu       4.43642000       5.48864000      16.10050000       0.00139600      -0.12546300      -0.04511600       0.11196100
Cu       6.97151000       5.48864000      16.10050000       0.00511800      -0.13082100       0.01093000       0.10707100
Cu       0.63377000       7.68410000      16.10050000      -0.02366400      -0.10020800       0.02987700      -0.10596800
Cu       3.16887000       7.68410000      16.10050000      -0.00340700      -0.07295000       0.03323300      -0.15542400
Cu       5.70396000       7.68410000      16.10050000       0.03267200       0.16028100       0.00678900       0.18084200
Cu       8.23906000       7.68410000      16.10050000      -0.00150500      -0.12619500       0.04255500       0.20942900
Cu       5.56360000       1.76308000      18.20720000       0.00368400       0.50945800       0.46522800       0.06325100
Cu       8.09820000       1.79035000      18.45350000       0.01169600      -0.16553700       0.04144500      -1.21271500
Cu       0.62539000       1.87289000      18.16070000       0.02413300      -0.66850100      -0.13699700       0.25176500
Cu       3.06128000       1.75258000      18.30790000       0.02289500       0.17109000       0.81678200      -0.86968200
Cu       6.82957000       3.95045000      18.12830000       0.01315800      -0.10914000       0.27427400       0.67701800
Cu       9.27721000       4.06633000      18.16270000       0.00718000       0.44205900      -0.17891800       0.37315000
Cu       1.70367000       4.02436000      18.07980000       0.00906100       0.35576600       0.30792800       0.78976100
Cu       4.26068000       3.93697000      18.17710000       0.00294200       0.35897700       0.49165500      -0.14624500
Cu       8.05595000       6.22267000      18.19710000       0.01707400       0.07882200       0.00694700       0.13667400
Cu       0.46148000       6.29843000      18.16620000       0.01217400      -0.05065700      -0.45288200       0.03444800
Cu       2.97440000       6.28530000      18.15010000       0.00913900       0.39644500      -0.30607100       0.17594400
Cu       5.52010000       6.22171000      18.19920000       0.02230800       0.24149800       0.24007400      -0.37186700
Cu       9.41765000       8.45664000      18.16270000       0.00332200      -0.23573200      -0.04106800       0.11607400
Cu       1.79272000       8.44456000      18.13940000       0.02479200      -0.07608400      -0.14689500      -0.07102600
Cu       4.40108000       8.46607000      18.08730000       0.00424000      -0.43489500      -0.69140200       0.42936600
Cu       6.90705000       8.36797000      18.41890000       0.02578600      -0.06966600       0.19150500      -0.48558000
Cu       5.35930000       0.34126000      20.24960000      -0.06462900       0.29730700       0.58740600       0.17873700
Cu       8.21878000       0.39728000      20.44450000       0.00446100      -1.13694100      -0.05995400      -0.07372700
Cu       0.39809000       0.38771000      20.22950000      -0.03148800       0.64022300       0.07231100      -0.03538000
Cu       2.83069000       0.41615000      20.17920000      -0.07079900       0.71504400      -0.52845300       0.71786000
Cu       6.74421000       2.58863000      20.42020000      -0.04293000       0.28164400       0.10019200      -0.62184300
Cu       9.37548000       2.54822000      20.22340000      -0.06960800       0.31810700       0.79153600       0.32956000
Cu       1.80797000       2.59349000      20.36930000      -0.05158800      -0.44152100       0.25312300      -0.52107800
Cu       4.34000000       2.65816000      20.26060000      -0.05082000      -0.21542800      -0.19392500       0.08654500
Cu       7.96703000       4.92370000      20.36860000      -0.04237200       0.09844200      -0.58027200      -0.49083800
Cu       0.42294000       4.82836000      20.22180000      -0.05531800       0.06406500      -0.32850600      -0.22140200
Cu       3.01319000       4.73373000      20.12410000      -0.08863500      -0.34417600       0.36741600      -0.07368200
Cu       5.49569000       5.03006000      20.18910000      -0.05553200       0.20547700      -1.38086400       0.39961800
Cu       9.25197000       6.97887000      20.28560000      -0.01857100       0.14754800       0.03750100      -0.35691000
Cu       1.63626000       7.00773000      20.17780000      -0.05492100       0.25428800      -0.16583300       0.14510100
Cu       4.19647000       6.99697000      20.26430000      -0.02590400      -0.47463800       0.28541800      -0.25775800
Cu       6.67772000       7.12322000      20.56960000      -0.03703000       0.39100000      -0.26779600      -0.58712000
O        8.29764000       3.19985000      23.27860000      -1.34371500      -3.80158400       0.34861600      -0.94124000
O        8.70647000       7.26146000       1.47937000      -1.29709800       0.05188500       1.81351800       0.68466300
O        1.45822000       8.47623000      23.81550000      -1.30654900      -0.55933500      -0.11448300       0.40187700
O        4.98228000       2.65154000      23.64900000      -1.29264900       0.72643200       1.07106200      -0.38287400
O        7.34168000       2.71351000      27.46810000      -1.32321900      -1.69415800      -0.81571300      -0.33848400
O        3.06843000       3.03541000      25.43320000      -1.34693400      -0.33230400      -0.52811000       0.71668900
O        0.18231000       5.12790000       1.80966000      -1.34938300       0.43434500      -0.00183900      -0.40927300
O        5.85721000       6.13093000      29.67670000      -1.26187800       1.65959000      -0.25504500       0.11309000
O        6.44401000       5.08468000      24.09630000      -1.33936100      -1.93112400       0.59261300       0.71581800
O        4.54347000       7.48466000      23.73840000      -1.29136300      -0.16402700      -2.14610600      -0.58283300
O        8.27127000       7.00623000      28.37990000      -1.30736500       0.00506900      -1.26822500      -0.54037300
O        9.16378000       8.66564000      26.10230000      -1.31284800       0.94899000      -1.11963100       0.56810600
O        8.00307000       0.44708000       5.05602000      -1.34881700      -0.10315200      -0.14299200      -0.60525900
O        3.65285000       8.43632000      26.00910000      -1.34791300      -0.70722900      -0.19630300      -0.64303300
O        8.94592000       2.59695000      29.71660000      -1.31528300       0.10894800       0.73275000      -0.71586000
O        6.11708000       8.69121000      27.25060000      -1.32969500       0.51844100       0.20620500       0.37993800
O        3.09660000       8.58615000       1.09840000      -1.24846200      -1.55577100      -1.04926900       1.64020200
O       10.03210000       0.75800000       1.28598000      -1.37021500       0.68979800      -0.52400900       0.63530500
O        0.80167000       3.12035000      23.41720000      -1.25107200       0.04044400      -0.46895600      -2.16066600
O        2.77437000       1.32205000       5.58770000      -1.39234800      -1.65180500      -0.73537700       1.16648000
O        1.33277000       4.28798000      28.95100000      -1.38312300      -0.21689200       0.70176200       2.87112700
O        5.85083000       6.98214000       2.17536000      -1.33179400       0.58100800      -2.53707400      -0.11220400
O       10.06412000       5.60937000      24.70460000      -1.33866900       0.37343700       0.73315200       2.29450000
O        8.66683000       7.24488000      23.24140000      -1.28546700      -1.26817500       0.77255300      -0.40906300
O        6.40947000       3.60417000       0.49888000      -1.32646100      -1.62810700      -0.34209500      -0.02192300
O        7.15800000       6.00763000       6.15172000      -1.28185700      -1.53157300       1.51679100       0.15767300
O        9.83749000       7.56065000       6.31590000      -1.33166500       0.89383900      -1.03836200       0.55209500
O        1.99391000       7.67041000       5.27958000      -1.36566000       1.01899700      -0.09977200      -0.28128000
O        2.46518000       6.32527000       2.68776000      -1.34707600      -0.99699500       1.82153900      -0.13831800
O        2.69981000       2.27491000      28.04900000      -1.35112400      -0.44485300      -0.99065700      -1.75339600
O        4.55477000       1.76307000      30.00285000      -1.34152900      -0.89882900      -0.48024000      -0.16588500
O        5.76361000       3.67986000       7.28000000      -1.30716400       0.76457500       0.33941300       0.37872600
O        7.21449000       0.93030000      24.60590000      -1.32237300       1.90421500       2.03844600      -1.42845400
O        4.51346000       7.24577000       6.76073000      -1.26412300      -1.24204200       0.44045100       0.35796800
O        9.19730000       4.74328000      27.01500000      -1.32636900       0.11443400      -1.05297300      -1.30303700
O        9.73194000       5.00785000       6.98387000      -1.31025900       0.07141400      -0.67810700       0.44527700
O        0.31446000       1.28428000       7.10667000      -1.25764700      -0.07607200       1.25161900       0.85947700
O        2.94995000       4.14098000       7.36448000      -1.28978200       0.07525700      -0.20069900      -0.38004100
O        2.76837000       5.45340000      23.23100000      -1.28484700       0.61724200       0.31040600       1.19351200
O       10.08006000       2.01503000       3.99784000      -1.28876200       1.68066800       0.17350100      -0.44783900
O        4.22948000       3.82795000       4.30810000      -1.32669800      -0.64815300      -0.80155800      -1.61953300
O        5.49502000       0.50219000       3.60927000      -1.30960800       0.64113900      -1.40007900       0.42468800
O        3.77880000       6.40159000      27.72560000      -1.40374500      -0.94324400      -2.36034200       1.38145500
O        5.73359000       4.65153000      26.80540000      -1.31972600       0.08387400      -0.18080900       0.03505400
O        2.32347000       3.32803000       1.77110000      -1.30945200      -1.50459500       1.79179800       1.73676600
O        0.86672000       7.25216000      29.33590000      -1.35731600      -1.31798100       1.64715500      -0.83666200
O        1.33729000       0.22306000      27.36470000      -1.35447200       0.01390300      -0.38452100      -0.48905600
O        6.53534000       4.43811000       3.21005000      -1.32724900       0.61695500      -1.00039900      -0.45237500
O        8.94704000       4.22366000       4.15217000      -1.29713800      -0.08884600       0.28540200       1.67709400
O        6.17383000       0.85927000       7.01544000      -1.30610500       0.23570400       0.33204700       0.40626200
H        8.13737000       3.19418000      22.30620000       0.58503900       0.05658100      -0.12936600       0.51541500
H        9.21347000       3.17162000      23.35580000       0.68898100       3.35341000      -0.19967600       0.61277600
H        7.75725000       7.36974000       1.69336000       0.63183200       0.19008900      -0.41859700      -0.07369600
H        9.09166000       8.18199000       1.71010000       0.64089500      -0.41289900      -1.46066800      -0.82326300
H        9.59227000       3.34356000      29.66960000       0.63979900      -0.31410300      -0.61514400      -0.20773200
H        1.58175000       8.43088000      22.84840000       0.62330000      -0.79846200      -0.11686900       0.54038000
H        5.04894000       2.19192000      22.81500000       0.60826000      -0.10091400      -0.55493700      -0.52754000
H        5.42880000       3.51442000      23.43980000       0.65342400      -0.50944100      -0.50524600       0.72151300
H        6.56421000       3.34476000      27.45790000       0.65740000       0.83979500       0.33849100      -0.04926300
H        6.81319000       1.90537000      27.22480000       0.66041000       1.11299300       0.08937000       0.41337700
H        6.82955000       6.34489000      29.54100000       0.62466800      -1.11494000       0.51850600      -0.35895300
H        2.63868000       3.73614000      24.97740000       0.65823900      -0.81226600       1.22703100      -0.33957500
H        7.62457000       0.73078000       5.90724000       0.67687500      -0.37318200      -0.02100700      -0.31017700
H        9.76882000       5.89592000       1.57830000       0.69125400      -0.30684300       0.12753100       0.02387800
H        9.02169000       7.08425000      28.98650000       0.65001200       0.17734400      -0.00101600      -0.04891100
H        5.99323000       5.16187000      29.76780000       0.63790400      -0.57468600      -0.15882200       0.30821600
H        6.26281000       5.96521000      23.75430000       0.66007300      -0.13296400       0.24769200       0.11678100
H        4.11034000       6.60148000      23.44610000       0.65061300       0.34028000       1.40337400       0.68493600
H        4.37907000       8.03537000      22.97800000       0.61374900      -0.03922800       0.51909900      -0.50317200
H        2.57686000       0.37913000       5.30389000       0.68604400       0.25562500       0.53348600       0.14966300
H        8.44603000       6.12901000      27.90300000       0.66096100      -0.10986000       1.08924800       0.44850100
H        0.06282000       5.23951000      23.87700000       0.64613500       0.46028100      -1.47545800      -2.27382000
H        8.41700000       0.39730000      25.83900000       0.66571800      -1.07289900       1.11307900      -0.84137100
H        8.75367000       8.10786000      26.78410000       0.64538900       0.11055500      -0.34539500       0.37283400
H        3.66865000       2.73783000      24.75020000       0.68991000       0.79941100      -0.49594800      -0.21198300
H        7.24559000       0.43651000       4.40664000       0.66940300       0.44089200       0.10110900       0.76302800
H        2.70908000       8.59484000      26.19280000       0.66468100       0.00520700       0.45192300       0.59388000
H        3.59246000       8.00806000      25.12980000       0.67981500       0.70822800       0.29359500       0.19714400
H        9.86413000       4.74337000       2.56705000       0.65491500      -0.04308800      -0.10430700       0.39144700
H        8.51112000       2.55583000      28.81560000       0.67552700       0.34507300       0.05198400       0.73205100
H        5.20211000       8.75886000      26.93310000       0.68024400      -0.13993100      -0.35671300       0.36269300
H        3.12289000       7.63479000       1.40191000       0.64684800       0.57462500       0.81047900      -0.47077000
H        2.29628000       0.02110000       1.64825000       0.59396100       0.88821600       0.40920600      -0.98518200
H        0.11237000       1.42968000       1.93938000       0.67345800      -0.08770200       0.14442100       0.29320700
H        9.82945000       1.25870000       0.49124000       0.70240200      -0.52890000       0.49116000      -0.65329000
H        1.15902000       2.32678000      23.84710000       0.65692000       0.04787600      -0.04483000      -0.03944100
H        0.83015000       2.91873000      22.40090000       0.55042000       0.14967500       0.28097200       2.14493900
H        6.15580000       8.21734000      28.10840000       0.65028400      -0.29998000       0.39986200      -0.93776800
H        3.44125000       1.69818000       5.05756000       0.67263700       1.37727000       0.71627700      -1.12022300
H        1.86825000       3.54510000      28.67170000       0.69940400       0.55394100      -0.86716400      -0.85026500
H        0.90019000       4.69418000      28.23470000       0.65937400      -0.81778700       0.35641700      -1.66470900
H        7.16605000       4.74914000      23.61730000       0.67485800       1.99666000      -0.84839800      -0.84041300
H        6.15949000       6.10735000       2.62564000       0.65267300      -0.45145700       1.61911400      -0.19821600
H        5.70085000       6.58248000       1.26261000       0.65937000       0.01706000       0.96420600       0.29227400
H        9.34733000       6.22175000      24.54300000       0.70449400      -0.41341000       0.47983400      -0.07363400
H        8.23156000       7.12439000      22.36350000       0.56517700       0.46752800      -0.23624100       0.27551300
H        5.73012000       2.92978000       0.15778000       0.67480700       0.76780500       0.59466500       0.49299100
H        6.49062000       6.76757000       6.18741000       0.62581700       1.37824500      -1.14771300      -0.13107100
H        7.24630000       3.36753000       0.10320000       0.65241700       0.90656400      -0.51872900      -0.20002300
H        8.04410000       7.89512000      23.63350000       0.65568700       0.47971700       0.12091500       0.30190100
H        6.53499000       5.28874000       6.32175000       0.64589300       0.17675500      -0.51205700       0.07667600
H       10.01240000       8.14142000       7.05620000       0.66131200      -0.20122600       0.75727100       0.23742700
H        9.06062000       7.87080000       5.86742000       0.69957000      -1.14517500       0.69228800      -0.68611400
H        1.06254000       7.64655000       5.58253000       0.68672900      -0.39421800      -0.12749200       0.07581000
H        3.22358000       5.83523000       2.92914000       0.65561300       1.06276700      -1.18936900       0.16451400
H        2.77269000       2.56746000      27.09010000       0.67434200       0.61002200       0.15426000       1.05378100
H        2.01805000       7.27148000       4.39671000       0.68049300       0.10755300      -0.29892500      -0.36100500
H        2.16247000       1.43103000      27.82220000       0.67368500       0.24000500       0.83706400       0.80113000
H        4.14302000       1.09956000       0.45122000       0.66430500       0.46858800      -0.25417700       0.39868500
H        3.93122000       1.64991000      29.24520000       0.67004000       0.55071900       0.91952700      -0.26671500
H        4.91408000       4.00716000       7.01078000       0.65572300      -1.23600900       0.71463900       0.18168700
H        7.26972000       1.89778000      24.26200000       0.64415000      -0.23318100      -2.25500000       0.71647900
H        5.78173000       2.86749000       6.78123000       0.66101000       0.53007300      -1.14750800      -0.11673900
H        6.33688000       0.73606000      24.85460000       0.68560000      -1.66743400      -0.03891100       0.47954600
H        2.77364000       2.78168000       1.19469000       0.63702300       1.74007500      -1.85206000      -2.05933400
H        3.63043000       7.33782000       6.28496000       0.65778100       1.02400400      -0.07290400       0.61867800
H        4.31970000       7.44250000       7.72185000       0.55611700       0.09504700      -0.33288100      -1.14402200
H        8.70004000       3.90110000      26.85220000       0.65361000       0.10078600       0.72994700       0.68612500
H        8.77841000       5.08523000       7.06171000       0.63205900      -0.57721400      -0.14824500       0.05289200
H        1.27615000       1.35236000       6.93475000       0.63709100      -0.34144200       0.15188500      -0.14107200
H        9.92690000       5.94933000       6.88763000       0.66567700       0.30822300       0.41548900      -0.28453700
H        9.62258000       4.86514000      26.11050000       0.66091300      -0.36760400       0.38403800       1.04237600
H        0.06914000       2.12420000       7.59865000       0.59834500       0.46860000      -1.17217900      -0.82127700
H        2.88315000       4.62040000       6.52248000       0.64359500      -0.10267300      -0.02091700       0.11136700
H        2.81263000       3.21482000       7.10483000       0.65400200      -0.02985700       0.14052200      -0.09590700
H        1.78408000       5.79088000       2.23462000       0.69106000      -0.18541100      -0.49915500       0.32714300
H        0.85344000       1.82242000       4.28264000       0.62958400      -0.31147700       0.28989800      -0.00771300
H        3.72306000       3.62132000       3.46852000       0.61043700       0.12939000       0.34363800       1.26516200
H        9.54913000       1.38767000       4.46673000       0.68198900      -1.10588700      -1.11714800       0.63995200
H        1.98110000       5.99902000      23.40040000       0.64610500       0.17922900      -0.23121000      -0.46431900
H        5.14239000       3.87796000       3.91148000       0.67710800       0.01642600       0.48648200       0.48127500
H        5.55817000       8.54371000       2.94925000       0.66547100      -0.16879900       0.21680400       0.40344400
H        5.19471000       1.24949000       3.12791000       0.64062300      -0.32595100       1.03171100      -0.72455800
H        0.53489000       8.23098000      24.10900000       0.65652200       1.23750500       0.29904300      -0.99698600
H        3.79616000       7.09195000      27.08630000       0.68610800       0.86340200       1.32595200      -0.76543000
H        6.00691000       4.69244000      25.88280000       0.64785100       0.20642500       0.07989200      -0.20817000
H        4.57674000       6.21013000      28.24590000       0.68882100       0.01951300       0.96919900      -0.31310800
H        4.83195000       4.99603000      26.80360000       0.66954600      -0.35644500       0.13049600       0.27261800
H        1.78225000       3.88762000       1.18411000       0.66633700      -0.05078200      -0.10328700       0.29714800
H        2.81279000       5.07893000      22.34900000       0.61230500      -0.63132000       0.02462100      -0.38321100
H        0.72389000       7.66043000       0.04952000       0.67084800      -0.05347300       0.62973300       0.64466000
H        1.30169000       6.46075000      29.51500000       0.70906000       1.41270800      -2.53168100       0.27972200
H        0.46276000       0.18987000      26.91840000       0.69238600      -0.07386100       0.22341800      -0.06352800
H        1.35803000       8.23422000      27.95630000       0.68050700      -0.06230700      -0.01956400       0.38421400
H        6.57480000       3.94346000       2.34231000       0.66517800      -0.00639900       0.57837100       0.43347200
H        7.40655000       4.19896000       3.68544000       0.65985700      -0.61721000       0.48520200      -0.67624300