246
Lattice="10.140377178 0.0 0.0 0.0 8.78182424 0.0 0.0 0.0 30.131127158" Properties=species:S:1:pos:R:3:initial_charges:R:1:forces:R:3 stress="0.006798863407806382 -0.0004685875391348115 0.00037565770975953565 -0.0004685875391348115 0.003806658966821444 -0.00038498876590273116 0.00037565770975953565 -0.00038498876590273116 -0.0031934119706760362" free_energy=-1801.79587253 energy=-1812.3474658429564 pbc="T T T"
Cu       7.01495000       1.04875000       9.67224000      -0.04102000       0.32498200       0.65687800       0.29479700
Cu       9.40692000       1.09900000      10.02230000      -0.08316400       0.42805600       0.22051100      -0.64936400
Cu       1.85312000       1.10239000      10.03770000      -0.11069800       0.25227100       0.17609700      -0.62113700
Cu       4.71146000       1.05583000      10.04350000      -0.11356200      -1.24135500       0.40491800      -0.52408300
Cu       8.21255000       3.33776000       9.88346000      -0.06660900       0.40980100       0.11586900      -0.05550800
Cu       0.63961000       3.32290000       9.90300000      -0.11038600      -0.13854600      -0.04049800       0.39703600
Cu       3.22852000       3.28437000       9.92187000      -0.07868200      -0.10440200      -0.06689600       0.25811300
Cu       5.83975000       3.29489000      10.03600000      -0.12603600      -0.64066900       0.12853200      -0.40847100
Cu       9.41439000       5.56780000       9.95239000      -0.07847100       0.18582500      -0.29105300      -0.54991300
Cu       1.77969000       5.56352000       9.87424000      -0.08808100       0.57259200      -0.03685700       0.27613600
Cu       4.46069000       5.51264000      10.00790000      -0.09716700      -0.22812600       0.19057500      -0.26438400
Cu       6.97663000       5.57604000       9.75922000      -0.07898200      -0.05115100      -0.45843700       0.41768100
Cu       0.58819000       7.73557000       9.82403000      -0.05655400       0.17507900       0.02625800       0.37457100
Cu       3.27776000       7.88339000       9.81483000      -0.09031500      -0.32165300      -0.80520900       0.19757700
Cu       5.85084000       7.69137000       9.73198000      -0.10141400      -0.86758900      -0.19374400       0.20901800
Cu       8.23174000       7.73553000       9.81049000      -0.08412700       0.44510400      -0.32182100       0.26363800
Cu       5.73308000       1.79764000      12.00280000      -0.01596700      -0.06988500       0.44053900       0.31834700
Cu       8.21562000       2.00750000      11.94810000       0.00814900      -0.11749500      -0.74723500       0.08741000
Cu       0.56398000       1.79305000      11.92630000      -0.00192200       0.33535400       0.43394400       0.58608800
Cu       3.12416000       1.80194000      12.00210000       0.00767200       0.33297700       0.08937400      -0.20345700
Cu       6.99017000       4.08641000      11.99730000      -0.00317800      -0.30231200       0.05928000      -0.11744900
Cu       9.52784000       4.09004000      11.96670000       0.00025200      -0.09801400      -0.46399500      -0.09119900
Cu       1.89768000       4.05500000      11.95320000       0.01131500      -0.08109500      -0.16051700      -0.12793700
Cu       4.38969000       4.02784000      11.98170000      -0.00184800       0.35520800      -0.04051400       0.01069000
Cu       8.19298000       6.19533000      12.00070000      -0.00118100      -0.01577500       0.60943600      -0.28796400
Cu       0.48310000       6.21882000      11.91020000       0.00673200       0.89637900       0.53743100       0.36037100
Cu       3.10533000       6.22948000      12.03010000      -0.00422100       0.19240900      -0.29707700      -0.64504200
Cu       5.76684000       6.27165000      11.93090000      -0.00106700      -0.36103500      -0.13307800       0.06822200
Cu       9.42566000       8.48356000      12.01380000       0.00342000       0.28230800      -0.48183200      -0.28815900
Cu       1.95115000       8.34804000      11.94580000      -0.00185500      -0.67540900       0.18156500      -0.04576500
Cu       4.40272000       8.32284000      11.94780000       0.01137600       0.44009100       0.38197100       0.09577300
Cu       6.96872000       8.50358000      11.79630000       0.02218400      -0.03264800      -0.20798500       0.59260600
Cu       5.70396000       0.36591000      14.03060000      -0.01284000       0.02407900      -0.15295700      -0.08081900
Cu       8.23906000       0.36591000      14.03060000      -0.00912900      -0.20015600       0.11156300      -0.04189700
Cu       0.63377000       0.36591000      14.03060000       0.01120300       0.07833500      -0.02626100      -0.04131900
Cu       3.16887000       0.36591000      14.03060000      -0.03310100       0.01601100      -0.08294100       0.05137400
Cu       6.97151000       2.56137000      14.03060000      -0.01658100      -0.03439100       0.02364800       0.16775200
Cu       9.50660000       2.56137000      14.03060000      -0.01223600       0.04233700       0.00258800      -0.00125800
Cu       1.90132000       2.56137000      14.03060000      -0.01654100      -0.11683700       0.01236800      -0.02568600
Cu       4.43642000       2.56137000      14.03060000      -0.01578100      -0.00775900      -0.03045500       0.07279300
Cu       8.23906000       4.75682000      14.03060000      -0.00332100       0.05109600      -0.06296200       0.21509700
Cu       0.63377000       4.75682000      14.03060000      -0.01429400       0.07952500       0.03622500       0.00966600
Cu       3.16887000       4.75682000      14.03060000      -0.03937900      -0.04346400      -0.09400600       0.18506400
Cu       5.70396000       4.75682000      14.03060000       0.01620000      -0.06366500       0.05169600      -0.00983900
Cu       9.50660000       6.95228000      14.03060000      -0.03603000      -0.00252400       0.02606600       0.04425100
Cu       1.90132000       6.95228000      14.03060000      -0.00990000      -0.20635500      -0.02133300       0.08469300
Cu       4.43642000       6.95228000      14.03060000      -0.01113900       0.06626100      -0.04891700       0.06503900
Cu       6.97151000       6.95228000      14.03060000       0.01676200      -0.04252600       0.17007100      -0.09819400
Cu       6.97151000       1.09773000      16.10050000      -0.01030500       0.03106800       0.00538300       0.11555800
Cu       9.50660000       1.09773000      16.10050000      -0.00869300       0.05098400      -0.02153100       0.00903200
Cu       1.90132000       1.09773000      16.10050000      -0.01797200       0.05094400       0.06574500      -0.05044300
Cu       4.43642000       1.09773000      16.10050000      -0.01721800       0.16270700       0.01373000       0.02897700
Cu       8.23906000       3.29318000      16.10050000       0.01310200      -0.08536500      -0.10641900      -0.18436500
Cu       0.63377000       3.29318000      16.10050000      -0.03939100       0.17012500       0.00115800      -0.19155200
Cu       3.16887000       3.29318000      16.10050000      -0.01730400      -0.10385000       0.05181000       0.22371900
Cu       5.70396000       3.29318000      16.10050000      -0.01030800      -0.18485400       0.01354000      -0.00571500
Cu       9.50660000       5.48864000      16.10050000      -0.03607400       0.06247100      -0.03798600      -0.12108100
Cu       1.90132000       5.48864000      16.10050000       0.01814400      -0.01297500       0.05517600       0.35091000
Cu       4.43642000       5.48864000      16.10050000      -0.01386100      -0.01472500       0.13441200       0.13176600
Cu       6.97151000       5.48864000      16.10050000      -0.01078400      -0.06764500       0.17304000      -0.06378200
Cu       0.63377000       7.68410000      16.10050000      -0.01193400      -0.14798500      -0.04752900       0.08823900
Cu       3.16887000       7.68410000      16.10050000       0.01070200       0.15942200      -0.00022000       0.09468400
Cu       5.70396000       7.68410000      16.10050000      -0.02337200       0.00399000      -0.04674500       0.10701800
Cu       8.23906000       7.68410000      16.10050000      -0.03840500       0.07461200       0.16596000      -0.18232400
Cu       5.85379000       1.93470000      18.23000000       0.00254300      -0.54767800      -0.50210200       0.00226800
Cu       8.31899000       1.81407000      18.19350000       0.01017400      -0.43007600       0.34440100      -0.09893400
Cu       0.65934000       1.85486000      18.16570000      -0.00361500       0.50400400      -0.41770400      -0.21831400
Cu       3.28236000       1.78541000      18.15560000      -0.00223100      -0.24395400       0.56909700       0.07182400
Cu       6.94330000       4.06056000      18.08830000       0.00227400       0.33022800       0.30788400       0.57627500
Cu       9.53274000       3.93182000      18.09470000       0.00636200      -0.68161900       0.78155800       0.47154700
Cu       1.75566000       4.11011000      18.27300000       0.00504400       0.98696400      -0.09118800      -0.36296600
Cu       4.34478000       4.15356000      18.18330000       0.00840800       0.06860000      -0.66151600       0.32343700
Cu       8.28711000       6.29270000      18.10650000      -0.00293500      -0.62650800      -0.64031300       0.41751400
Cu       0.47559000       6.21499000      18.24880000       0.00226600       0.98120300       0.23859200      -0.12411100
Cu       3.13877000       6.30465000      18.26340000       0.01405700      -0.07687900      -0.24735900      -0.01132900
Cu       5.69107000       6.20933000      18.26270000       0.00588200       0.18043900       0.28844500      -0.49456000
Cu       9.44883000       8.47812000      18.25490000       0.00648200       0.73168000      -0.22388300      -0.75133000
Cu       1.88922000       8.36740000      18.09810000       0.00069600      -0.14448400       0.30973100       0.43101700
Cu       4.54714000       8.45916000      18.21860000      -0.00097100      -0.38236100      -0.17228900      -0.36304300
Cu       7.02274000       8.35406000      18.16980000       0.00773800      -0.34400100       0.46639700       0.02325500
Cu       5.76967000       0.31472000      20.19670000      -0.08056900       0.01641000       0.51921500       0.11581500
Cu       8.26793000       0.45900000      20.19950000      -0.03338200      -0.33269800       0.09335500       0.31690800
Cu       0.65380000       0.42134000      20.19560000      -0.03042000       0.02728200      -0.00210100       0.04016700
Cu       3.08573000       0.38176000      20.12360000      -0.05841300       0.72886300      -0.09139100       0.24610900
Cu       7.15295000       2.78887000      20.22990000      -0.04074400      -0.22293600      -0.57201500      -0.08034000
Cu       9.71471000       2.64441000      20.19190000      -0.03502600      -0.70048500       0.09190000       0.13529600
Cu       2.00452000       2.58072000      20.16790000      -0.08474700       0.26437200       0.13950600       0.12888500
Cu       4.63194000       2.62565000      20.31620000      -0.06602400      -0.46570100      -0.12932100      -0.47974400
Cu       8.30631000       4.87373000      20.21310000      -0.08012200       0.22445900      -0.11841300      -0.21201300
Cu       0.62901000       4.84824000      20.34140000      -0.09380700       0.07899000       0.07769600      -0.04026700
Cu       3.12649000       4.76970000      20.37750000      -0.07556300       0.28456400       0.21001800      -0.41295000
Cu       5.69904000       4.86688000      20.28350000      -0.06799800       0.17246700      -0.46970400      -0.07561800
Cu       9.50073000       7.12382000      20.27590000      -0.09396500       0.15866100      -0.61812200       0.14034100
Cu       1.87703000       7.02159000      20.38800000      -0.09449500       0.10279200      -0.28319100      -0.53171900
Cu       4.51672000       6.99769000      20.30000000      -0.08012600      -0.54554600      -0.02508500      -0.17940100
Cu       7.06912000       6.92518000      20.29220000      -0.07413300      -0.29904400       0.46175100      -0.20590700
O        0.23435000       2.70370000      26.62910000      -1.36867600       0.09822300      -0.88110100       0.19748900
O        4.67729000       3.41807000      26.54350000      -1.36427100       0.47264900       0.20402900      -0.47736600
O        8.62924000       7.85827000      23.57010000      -1.28851100       1.65134400       0.49865000       0.22590500
O        9.40165000       4.98934000      27.87530000      -1.34004300      -0.23950100      -0.55942600       0.48202400
O       10.04450000       3.92392000      24.00640000      -1.30665900       0.85498400       0.52900900       0.50832000
O        2.81352000       5.37414000      26.96680000      -1.36170100       1.35112400      -0.10056400       0.25495500
O        9.63874000       7.57098000      26.95650000      -1.32206700      -1.00156600       1.80997000       0.99145600
O        1.28134000       0.51486000      27.89640000      -1.39412800      -1.47674900      -0.78533800       0.08573200
O        5.55367000       0.95106000       0.11160000      -1.28375000      -0.14888200      -1.28273500       0.69070400
O        2.84044000       2.40814000      24.47540000      -1.28751800      -0.47797300      -1.83192900      -1.42510100
O        3.91072000       1.37499000      27.86140000      -1.36031200      -0.67025300       0.51431000      -0.00192700
O        3.32314000       0.29301000       1.68765000      -1.37304200      -0.48868200      -2.27841100      -1.95631200
O        3.91002000       3.68823000       6.77438000      -1.33153900      -0.76665500       1.68599900      -1.76741500
O       10.00385000       2.48703000       3.29336000      -1.26131200      -0.69632100       0.67145700       1.67147500
O        0.26824000       3.07597000       0.50287000      -1.28056700       0.57768400       0.12883200      -0.46460200
O        4.22436000       2.37111000       2.84709000      -1.37110300      -0.26952500       0.54021000       0.41924100
O        7.06616000       3.56221000       6.25557000      -1.34291200       0.24230900       0.25178400      -0.72523500
O        7.97661000       5.16747000       0.99377000      -1.34493700      -1.14349300      -1.48080400      -1.36274900
O        3.58969000       0.70065000       6.68572000      -1.33232600       1.22955100      -0.50684100       1.04387700
O        8.74387000       8.60107000       3.14763000      -1.33915100       2.06297900      -0.04242000       0.60266100
O        0.81976000       5.62440000       2.37130000      -1.31692400       0.37421200       0.00346800      -2.99383300
O        1.27900000       3.69752000       6.89814000      -1.32496700       0.16447300      -0.00538300       0.46495900
O        3.51203000       5.20382000      23.52350000      -1.29654600       0.43468400       0.23699300       0.22083000
O        1.35927000       7.60966000       0.36656000      -1.32804500      -0.49911100      -0.65633400       0.05929900
O        7.16564000       7.43381000      29.07420000      -1.28140200      -1.31870500       0.76657100      -0.58650300
O        9.39723000       4.68907000       5.14870000      -1.35608100       1.45822300      -0.71327700       0.70331400
O        7.71767000       0.63718000      26.78750000      -1.28409800       1.79072600       1.56366500      -0.52218500
O        8.04216000       7.89278000       6.54497000      -1.36003900      -0.95386400      -0.26675000      -1.13553200
O        6.48573000       8.19973000       4.50977000      -1.35703900      -0.75519900      -0.42946700       0.38623600
O        2.54915000       3.51788000      28.89430000      -1.32025400       0.30245500      -1.42086000      -0.23516100
O        5.42673000       5.81122000       6.51625000      -1.38398800      -1.45397900       0.96900000      -0.21990300
O        0.08718000       7.34730000       5.30094000      -1.31986800       1.36640800      -0.61421400      -0.42295200
O        4.18924000       6.66920000       3.64114000      -1.36620400       0.11166600      -0.00435700      -0.73749700
O        3.30856000       4.62025000       1.84405000      -1.38826200      -0.28080300      -0.65535700       2.04041400
O        5.31081000       2.97807000      23.93310000      -1.30489800      -0.84686000      -0.45714600      -0.11171100
O        1.15127000       6.60792000      25.21250000      -1.31025000      -0.94974200       0.05771500      -0.11289700
O        9.22844000       0.79201000       0.47199000      -1.36264500      -0.40708400      -0.40981400      -0.84105000
O        4.98769000       7.76187000      23.30720000      -1.35935800      -0.27599300       0.67742200      -0.12184400
O        6.18869000       3.28733000       1.29799000      -1.37715100      -1.16501500       0.33856700       1.29631100
O        2.63849000       6.70349000       6.25819000      -1.33831900       0.57934300       1.29903700      -3.22757700
O        6.62986000       6.12475000      24.82780000      -1.31681000      -0.44166200      -0.18358700       0.51721200
O       10.01670000       1.33840000      22.85840000      -1.33154100      -0.70379200       0.16466200      -0.44145700
O        1.25551000       1.10730000       5.81526000      -1.30918800      -1.00911600       1.21460900      -0.49087300
O        5.10419000       0.67505000      25.56500000      -1.32918200       0.88038300      -0.77371200      -0.87697000
O        4.37608000       5.30907000      29.70500000      -1.31284800       1.94871000       0.32733600       0.78206300
O        7.39216000       1.38986000      23.16130000      -1.30182400      -2.02237300       2.38010800       0.36750500
O        6.84575000       2.89812000      28.46990000      -1.32325400      -1.12588700       2.74787300      -0.12857000
O        5.44654000       1.84666000       5.25613000      -1.34405900      -0.20519500      -0.65959800      -0.30848600
O        2.26640000       8.68036000      23.14640000      -1.32084600       0.20435800      -0.36703100       0.20630600
O        5.12245000       7.13084000      27.15680000      -1.34147700       0.50427900       0.35652300       0.29409200
H        0.19229000       2.86382000      25.69340000       0.67153600      -0.03490800       0.16117600      -1.09096400
H        0.00612000       3.55845000      27.00120000       0.69025200      -0.37435600       0.72799500       0.63236400
H        4.04103000       4.15784000      26.57980000       0.68149900      -0.11784800       0.36384400      -0.03242000
H        4.98888000       3.36586000      25.60180000       0.68819000       0.03600700       0.06059700       0.49591700
H        0.17109000       3.48029000       1.36999000       0.68576900      -0.23831900       0.14874600       0.33423900
H        9.46827000       8.42043000      23.58650000       0.63994200      -1.45672600      -0.58829200       0.30375700
H        8.59277000       4.69016000      28.36510000       0.65019900       0.78530100       1.00901800      -0.83944600
H        9.45243000       5.95623000      27.64920000       0.67529400      -0.63629800      -0.63707200       0.37827100
H        0.51442000       4.70023000      24.02600000       0.64958300      -0.68559100      -0.50425700      -0.07828700
H        9.74397000       3.83187000      23.09980000       0.62767000      -0.19945000       0.45164300      -0.40249500
H        0.87929000       1.23130000      27.40460000       0.68715200      -0.35546900       0.84767800      -0.23599300
H        2.41592000       4.76674000      27.57910000       0.67495600      -0.43630200      -0.64897900       0.94721900
H        4.15156000       3.18363000       7.52612000       0.62900700       0.74665500      -0.46573400       1.52912800
H        0.24224000       8.12597000      27.35440000       0.67298300      -0.22913300      -0.69892700      -0.25108500
H        4.57591000       1.17662000      28.53740000       0.67339200       0.27782700       0.19442300       0.12002900
H        2.17344000       0.79611000      28.00100000       0.69877100       1.79417300      -0.00813600       0.06973200
H        6.38146000       0.43184000       0.24637000       0.62307800      -0.81038500       0.39044500      -0.39069000
H        2.72609000       1.53516000      23.94960000       0.65724000      -0.09542100       1.21241100       0.57836400
H        2.82597000       2.08592000      25.37720000       0.64961300       0.12209100       0.02631900       0.48284000
H        7.84327000       8.61104000       3.44001000       0.68185500      -1.39345600      -0.21944500       0.44117100
H        4.22792000       2.13133000      27.25870000       0.68548300       0.31192700      -0.70159500       0.50369300
H        3.12995000       4.34057000      23.69170000       0.63986400      -0.44361700      -0.20551800      -0.05301100
H        3.52541000       1.01157000       2.24764000       0.72709700       0.53228100       2.21529700       1.46723200
H        3.56491000       8.28940000       2.17827000       0.64635500       0.00691200      -0.46246800       0.42479800
H        2.11851000       5.64241000      26.38260000       0.68917100      -0.71310100       0.87619800      -1.18315400
H        4.35246000       4.61232000       6.76660000       0.66365800      -0.17419700      -1.16429400       0.30971400
H        9.33685000       1.81148000       3.50565000       0.61312200       0.15781900      -0.36703300      -0.66902000
H        9.73554000       3.18335000       3.96242000       0.62397000       0.60949400      -0.21295500      -0.97761800
H        8.86041000       8.24493000      26.96270000       0.64181600       1.03597900      -1.40574600      -0.48414300
H        9.89100000       3.59696000      30.01689000       0.63046700      -0.10461900       0.52839800       0.01311500
H        4.67539000       2.30321000       3.73057000       0.68223000      -0.45560900       0.39248700      -0.30646000
H        6.46224000       2.84246000       5.88180000       0.69550500       0.04315400       0.34563600       0.37509100
H        6.82408000       3.72799000       7.16875000       0.59678000       0.10736700      -0.43540400       0.55590600
H        8.25343000       5.75482000       1.64705000       0.64045600       0.93471000       1.48110900       1.77086300
H        7.29442000       4.58806000       1.42765000       0.68479000       0.40906000       0.26382000      -0.56201600
H        3.44214000       0.87127000       7.64359000       0.59066400       0.14832500      -0.18591100      -0.30761700
H        2.77479000       0.95947000       6.24197000       0.69322600      -1.11602200       0.16165400      -0.52064400
H        3.78109000       3.25831000       2.68038000       0.68738000       0.75700300      -0.92165900       0.24062400
H        9.22497000       8.27762000       3.95910000       0.63903100      -0.25439500       0.13084700      -1.08231200
H        0.84994000       6.39344000       1.72034000       0.65639700       0.19116200      -0.74822800       0.48173300
H        0.66047000       6.02634000       3.18533000       0.65554300      -0.51553700       0.96976000       2.31491700
H        4.85612000       0.51718000       0.68771000       0.64752400       0.67027500       0.50671600      -0.63260100
H        2.30871000       3.72338000       6.85441000       0.67447500      -0.88460500       0.04009900       0.23522700
H        1.00738000       3.73897000       7.87106000       0.54662400       0.55524500       0.07986700      -1.08320900
H        3.03818000       5.58841000      22.77520000       0.60427800      -0.14453300      -0.15008100      -0.16616900
H        2.00698000       8.29999000       0.57164000       0.66628400      -0.25518500       0.16911300       0.12185900
H        7.93804000       7.65920000      28.58530000       0.63686700       0.90338700       0.45556200      -0.62351300
H       10.07930000       4.32781000       5.80178000       0.64787400      -0.57594000       0.48524200      -0.70098200
H        7.48884000       6.89918000      29.76640000       0.64366100       0.41304600      -1.39379000       1.47545400
H        0.55091000       8.04631000       0.04340000       0.65827100       0.47608000       0.36258400       0.13111200
H        8.58608000       4.26157000       5.45301000       0.70303200      -0.72836800       0.01686500       0.37767100
H        8.39113000       1.25744000      26.36510000       0.61775300      -1.00524800      -0.87000400       0.79704600
H        6.93234000       0.79837000      26.24630000       0.67813400      -0.90667300      -0.28001600      -0.36540700
H        8.88945000       7.92694000       6.04674000       0.68659400       0.11748600       0.18693000       1.21466500
H        5.78507000       7.56127000       4.25100000       0.67187500       0.32753700       0.28955200      -0.00595800
H        2.96741000       2.65252000      28.53430000       0.64897600      -0.33251900       1.14329200       0.65515100
H        8.07596000       8.12619000       7.47252000       0.61648200       0.55100000       0.23770500       0.43154000
H        2.01821000       3.24190000      29.66070000       0.65324400      -0.22495600       0.08852900      -0.15986800
H        5.51830000       6.31917000       7.34753000       0.66096400       0.59694200      -0.52227000      -0.20054100
H        6.14181000       5.20859000       6.31228000       0.68788100       0.97387400      -0.21687100       0.27835700
H        1.07563000       7.22783000       5.46309000       0.64603600      -1.08187800       0.47853300       0.19033300
H        3.93049000       5.88126000       3.08350000       0.65476100       0.21630900       0.54374700       0.95427900
H        9.88383000       6.44441000       5.43423000       0.66507900      -0.20807300      -0.21340600      -0.22816700
H        3.96866000       6.55303000       4.57680000       0.69287500      -0.35560600      -0.56168800      -0.20457200
H        5.07656000       4.65370000      29.97869000       0.63513700      -0.95458400       0.70541900      -0.37631300
H        2.41507000       4.91622000       2.03389000       0.69054300      -1.01323100       0.20410000       0.28416200
H        3.57185000       5.09758000       1.07472000       0.69224300       0.99468900       0.72981900      -1.68891100
H        5.16024000       3.69180000      23.28900000       0.62172400       0.02773300       0.02652100       0.24765200
H        0.30073000       6.88255000      25.64370000       0.66642500       0.53723500      -0.31942600      -0.05868300
H        9.32062000       0.50889000       1.37610000       0.65335500      -0.14541700      -0.19782500       0.78133200
H        1.36208000       7.41572000      24.72850000       0.62716400       0.59377800      -0.10844900      -0.33096700
H        4.37159000       2.57522000      24.09600000       0.67357000       1.23090000       0.58608800      -0.36469300
H        9.57977000       1.70689000       0.46050000       0.67606900       0.20397500      -0.28596000       0.10347100
H        5.12867000       7.92825000      22.34680000       0.59449400       0.24799000      -0.47219400       0.36606600
H        5.34172000       6.89619000      23.58670000       0.70294700       0.15069100       0.00926400      -0.17768800
H        6.79499000       7.94514000       5.43033000       0.68329600       0.16900200       0.21965600      -0.61490800
H        2.32948000       6.18124000       6.94809000       0.65006000      -0.60487300      -1.08125300       2.43603300
H        7.30641000       6.72808000      24.52930000       0.64574700       0.76770400       0.30721300      -0.35673300
H        3.07395000       7.52349000       6.52991000       0.67317700      -0.09505100       0.06906800       0.72299800
H        6.50005000       2.84791000       0.53474000       0.70889400       0.69495100      -0.72085100      -1.65456300
H        6.40972000       6.45504000      25.71750000       0.66109500      -0.33263700      -0.20251900      -0.16705700
H        9.03695000       1.54409000      22.64600000       0.66644400       1.42391600      -0.11357900       0.89587000
H        0.32670000       2.13939000      23.18620000       0.63897200      -0.42938800      -0.29493600      -0.07330200
H        8.55941000       7.76631000      22.61160000       0.59286900      -0.32285700      -0.40112800      -0.46282600
H        0.87826000       1.42651000       4.96190000       0.65417600       0.46321800      -0.35410200       0.38160300
H        5.28799000       0.23221000      24.68980000       0.64763800      -0.48185100       0.28303400       0.83401600
H        1.09220000       1.90554000       6.38401000       0.64347700       0.13113700      -0.36354400      -0.22012100
H        4.99200000       8.68958000      26.16850000       0.66955200      -0.27615200       0.11454300      -0.09251800
H        3.62984000       4.79064000      29.41420000       0.67478800      -0.52266600      -0.99243600      -0.65016600
H        5.46672000       2.66996000       1.59842000       0.65882500       0.65114000       0.87858800       0.24896000
H        7.07550000       0.51798000      23.37980000       0.62538600       0.08041400      -0.63908800       0.05951800
H        6.58196000       2.03276000      23.38450000       0.64179800       1.65330900      -1.30116300      -0.47544800
H        7.21511000       2.09730000      28.15100000       0.67687800       0.32854400      -1.21571900      -0.92874700
H        6.32017000       3.36546000      27.74300000       0.63333300       0.86018500      -1.31085000       1.07206800
H        4.73260000       1.53362000       5.90586000       0.68106000       0.64576100       0.09090700      -0.56004500
H        5.85708000       1.01669000       4.89241000       0.66126100      -0.24191400       0.18110900       0.45618600