246
Lattice="10.140377178 0.0 0.0 0.0 8.78182424 0.0 0.0 0.0 30.131127158" Properties=species:S:1:pos:R:3:initial_charges:R:1:forces:R:3 stress="0.008150967771255598 0.001567573741492958 -0.00041022318729867714 0.001567573741492958 0.0074093703814455255 0.002340347469386816 -0.00041022318729867714 0.002340347469386816 0.0062965717193918" free_energy=-1807.36183376 energy=-1810.1872149317103 pbc="T T T"
Cu       7.10376000       1.18262000       9.92275000      -0.07821000      -0.24292700      -0.21914900       0.30445500
Cu       9.51884000       1.14612000       9.88344000       0.00577500       0.27584400      -0.18272900       0.42332700
Cu       1.87674000       1.04836000       9.97680000      -0.04445400       0.27848700       0.20702500      -0.11647400
Cu       4.53134000       1.05738000       9.88060000      -0.03842500      -0.13006900       0.11739700       0.30559800
Cu       8.42079000       3.41315000       9.82774000      -0.00660400      -0.30191300      -0.65339500       0.39969500
Cu       0.65852000       3.29721000       9.98641000      -0.04348400       0.37031600      -0.03101200      -0.09075700
Cu       3.16189000       3.20836000       9.95384000       0.01698400       0.19917000       0.11795000       0.09180800
Cu       5.88074000       3.33515000       9.81086000       0.09581100      -0.70356900      -0.23823500      -0.27123500
Cu       9.65264000       5.54678000       9.99729000       0.01581900      -0.14459800      -0.34197000      -0.46318800
Cu       1.93920000       5.46563000       9.93820000       0.01403800       0.27923400       0.02120700      -0.13963500
Cu       4.41326000       5.47651000       9.96725000       0.00609800       0.52564200       0.10026300       0.11463500
Cu       7.14039000       5.41905000       9.90823000      -0.01493800      -0.35879100       1.09694400      -0.16890900
Cu       0.73876000       7.68163000       9.91025000      -0.05858400      -0.02023200       0.12438700       0.25981200
Cu       3.19653000       7.64695000       9.94102000      -0.08472700       0.09054500       0.43290200      -0.21567700
Cu       5.79353000       7.60993000       9.93901000      -0.04842900       0.02358300       0.16617800       0.28073000
Cu       8.43795000       7.64439000       9.94693000      -0.04319200      -0.89331800       0.30338700      -0.18670900
Cu       5.66589000       1.90988000      12.00090000       0.00773200      -0.08529800      -0.02644000      -0.52192900
Cu       8.19558000       1.91349000      12.02740000       0.02687000       0.44355600      -0.07328500      -0.48906700
Cu       0.63149000       1.94193000      12.04080000       0.02063500      -0.37095700      -0.66997300      -0.45276800
Cu       3.05933000       1.79070000      12.00610000       0.01816000       0.84706500       0.72269200      -0.33435800
Cu       6.95784000       4.08682000      11.82860000       0.02535100       0.21057900      -0.58075000       0.83623500
Cu       9.58238000       4.03805000      12.03830000       0.01581500      -0.63589700       0.20523700      -0.38523500
Cu       1.87626000       4.12602000      12.01370000       0.02199700       0.58045800      -0.45991800      -0.28469400
Cu       4.34878000       4.06188000      11.94080000       0.01332300       0.43050700      -0.07645500       0.03753400
Cu       8.36683000       6.19662000      11.98590000       0.01646900      -0.56931800       0.04745900      -0.03253900
Cu       0.74654000       6.23657000      11.98180000       0.02821400      -0.47272700       0.34615400       0.08098600
Cu       3.16365000       6.38128000      11.96340000       0.02093400       0.36119200      -0.77423100       0.22057400
Cu       5.85348000       6.19986000      12.07430000       0.01388900      -0.70503500       0.44967300      -0.89847300
Cu       9.48996000       8.33533000      11.96770000       0.02031500       0.29434200       0.92653500       0.04492600
Cu       1.83654000       8.54118000      12.09290000       0.01020100       0.01678400      -0.75388900      -0.81095900
Cu       4.36538000       8.47008000      11.94680000       0.01343600       0.71451600      -0.00986900       0.08601900
Cu       6.97660000       8.54937000      11.93040000       0.02004700      -0.07521000      -0.59938400       0.04963700
Cu       5.70396000       0.36591000      14.03060000       0.02961900      -0.01495100      -0.00982100      -0.07061800
Cu       8.23906000       0.36591000      14.03060000       0.00341900       0.02283200      -0.02941600       0.02120800
Cu       0.63377000       0.36591000      14.03060000      -0.02292900      -0.30231100       0.09455900       0.40796800
Cu       3.16887000       0.36591000      14.03060000       0.00169600       0.13855300       0.00057200       0.38037100
Cu       6.97151000       2.56137000      14.03060000       0.02431600      -0.07592500       0.15096100       0.11497100
Cu       9.50660000       2.56137000      14.03060000      -0.03184500      -0.11172500       0.00043100       0.38870800
Cu       1.90132000       2.56137000      14.03060000       0.00890100       0.06199900       0.10623100       0.30595500
Cu       4.43642000       2.56137000      14.03060000      -0.00787200      -0.10556200       0.07254400       0.05370900
Cu       8.23906000       4.75682000      14.03060000       0.03016300      -0.15002300      -0.08992700      -0.02924000
Cu       0.63377000       4.75682000      14.03060000      -0.02292400       0.02936500       0.09666900       0.41656700
Cu       3.16887000       4.75682000      14.03060000       0.02100800       0.04136300       0.09722400       0.07065800
Cu       5.70396000       4.75682000      14.03060000      -0.02115600      -0.02093900      -0.24780800       0.01380900
Cu       9.50660000       6.95228000      14.03060000       0.00130000       0.10448700      -0.04632600       0.17757700
Cu       1.90132000       6.95228000      14.03060000       0.00154400       0.03857500      -0.01961300       0.27120300
Cu       4.43642000       6.95228000      14.03060000      -0.00177300       0.07485200       0.01910800       0.00860500
Cu       6.97151000       6.95228000      14.03060000      -0.00430700       0.26685700       0.16957200       0.18259600
Cu       6.97151000       1.09773000      16.10050000       0.02945000       0.03347100      -0.01412400       0.50009000
Cu       9.50660000       1.09773000      16.10050000      -0.00749400      -0.13556900       0.12428900       0.18532700
Cu       1.90132000       1.09773000      16.10050000       0.00105800       0.03016100       0.11415100       0.02185300
Cu       4.43642000       1.09773000      16.10050000      -0.02833700      -0.12961600       0.19389800      -0.14046600
Cu       8.23906000       3.29318000      16.10050000      -0.00856100      -0.13931100      -0.21339800       0.05434900
Cu       0.63377000       3.29318000      16.10050000      -0.01253600      -0.31771900      -0.04597200      -0.31143900
Cu       3.16887000       3.29318000      16.10050000      -0.00737100      -0.14232400      -0.11145000       0.01326400
Cu       5.70396000       3.29318000      16.10050000      -0.01433000      -0.20741600      -0.10424800      -0.07119000
Cu       9.50660000       5.48864000      16.10050000      -0.00076300      -0.12528300       0.02778500      -0.00522100
Cu       1.90132000       5.48864000      16.10050000      -0.00518400      -0.13661100       0.07697800      -0.16181800
Cu       4.43642000       5.48864000      16.10050000      -0.00055500      -0.12717600      -0.04573500       0.10851500
Cu       6.97151000       5.48864000      16.10050000       0.00310400      -0.12967500       0.01020300       0.10296100
Cu       0.63377000       7.68410000      16.10050000      -0.02532000      -0.10018500       0.02720900      -0.10700400
Cu       3.16887000       7.68410000      16.10050000      -0.00488000      -0.07256200       0.03087800      -0.15805300
Cu       5.70396000       7.68410000      16.10050000       0.03079400       0.16021700       0.00522000       0.17965700
Cu       8.23906000       7.68410000      16.10050000      -0.00326800      -0.12661400       0.04039000       0.20837800
Cu       5.56360000       1.76308000      18.20720000       0.00213000       0.51062600       0.46607800       0.06413600
Cu       8.09820000       1.79035000      18.45350000       0.00975500      -0.16474800       0.04213900      -1.21437900
Cu       0.62539000       1.87289000      18.16070000       0.02256300      -0.66960100      -0.13591800       0.25215900
Cu       3.06128000       1.75258000      18.30790000       0.02094800       0.17146500       0.81725700      -0.86892400
Cu       6.82957000       3.95045000      18.12830000       0.01131200      -0.10900000       0.27756200       0.67526500
Cu       9.27721000       4.06633000      18.16270000       0.00545600       0.44320300      -0.17573600       0.37140500
Cu       1.70367000       4.02436000      18.07980000       0.00727700       0.35706400       0.31149100       0.78836200
Cu       4.26068000       3.93697000      18.17710000       0.00112000       0.35925900       0.49554700      -0.14659500
Cu       8.05595000       6.22267000      18.19710000       0.01536300       0.07870600       0.00750800       0.13598000
Cu       0.46148000       6.29843000      18.16620000       0.01037200      -0.05061100      -0.45206100       0.03606700
Cu       2.97440000       6.28530000      18.15010000       0.00749100       0.39768200      -0.30501100       0.17743700
Cu       5.52010000       6.22171000      18.19920000       0.02035300       0.24253000       0.24101900      -0.37184000
Cu       9.41765000       8.45664000      18.16270000       0.00156000      -0.23578500      -0.03822100       0.11533100
Cu       1.79272000       8.44456000      18.13940000       0.02331200      -0.07580300      -0.14250100      -0.07031800
Cu       4.40108000       8.46607000      18.08730000       0.00268200      -0.43497700      -0.68847900       0.42733700
Cu       6.90705000       8.36797000      18.41890000       0.02404500      -0.07037800       0.19369100      -0.49006500
Cu       5.35930000       0.34126000      20.24960000      -0.07090900       0.29801500       0.58986300       0.18338700
Cu       8.21878000       0.39728000      20.44450000      -0.00175600      -1.14001200      -0.05896300      -0.08152500
Cu       0.39809000       0.38771000      20.22950000      -0.03710100       0.64229900       0.07187700      -0.03674400
Cu       2.83069000       0.41615000      20.17920000      -0.07682200       0.71503000      -0.53109900       0.72152200
Cu       6.74421000       2.58863000      20.42020000      -0.05109700       0.28221900       0.10194200      -0.62175200
Cu       9.37548000       2.54822000      20.22340000      -0.07512400       0.31902100       0.79360200       0.33009700
Cu       1.80797000       2.59349000      20.36930000      -0.05911400      -0.44336900       0.25518200      -0.52357700
Cu       4.34000000       2.65816000      20.26060000      -0.05687000      -0.21409800      -0.19443800       0.08512700
Cu       7.96703000       4.92370000      20.36860000      -0.04909100       0.09715400      -0.58158400      -0.49245000
Cu       0.42294000       4.82836000      20.22180000      -0.06145600       0.06470600      -0.32915700      -0.22022400
Cu       3.01319000       4.73373000      20.12410000      -0.09418800      -0.34564300       0.36785300      -0.07365000
Cu       5.49569000       5.03006000      20.18910000      -0.06090200       0.20706700      -1.38243800       0.39889400
Cu       9.25197000       6.97887000      20.28560000      -0.02364000       0.14584500       0.03557600      -0.36093200
Cu       1.63626000       7.00773000      20.17780000      -0.06152000       0.25548300      -0.16406800       0.14660300
Cu       4.19647000       6.99697000      20.26430000      -0.03190600      -0.47723500       0.28701400      -0.26099100
Cu       6.67772000       7.12322000      20.56960000      -0.04508400       0.39607800      -0.26767700      -0.59160200
O        8.29764000       3.19985000      23.27860000      -1.34851600      -3.79564000       0.34574600      -0.86389700
O        8.70647000       7.26146000       1.47937000      -1.29754600       0.05133000       1.81866500       0.67207700
O        1.45822000       8.47623000      23.81550000      -1.30969800      -0.56931100      -0.11912100       0.46039800
O        4.98228000       2.65154000      23.64900000      -1.29701300       0.72430300       1.07381100      -0.31894700
O        7.34168000       2.71351000      27.46810000      -1.32369300      -1.69161000      -0.82161200      -0.30705400
O        3.06843000       3.03541000      25.43320000      -1.34944100      -0.33949600      -0.52180300       0.78025800
O        0.18231000       5.12790000       1.80966000      -1.35040300       0.43161100       0.00303600      -0.43017400
O        5.85721000       6.13093000      29.67670000      -1.26226600       1.66183400      -0.25926700       0.11722800
O        6.44401000       5.08468000      24.09630000      -1.34274600      -1.93093300       0.60101200       0.78114000
O        4.54347000       7.48466000      23.73840000      -1.29593600      -0.18404900      -2.13519200      -0.51440800
O        8.27127000       7.00623000      28.37990000      -1.30776000       0.00333400      -1.26972300      -0.51299000
O        9.16378000       8.66564000      26.10230000      -1.31178600       0.96280100      -1.12636000       0.62762500
O        8.00307000       0.44708000       5.05602000      -1.34986600      -0.10548500      -0.13520200      -0.67845000
O        3.65285000       8.43632000      26.00910000      -1.34927700      -0.71675100      -0.19640900      -0.57559100
O        8.94592000       2.59695000      29.71660000      -1.31611900       0.11272700       0.73437200      -0.70801900
O        6.11708000       8.69121000      27.25060000      -1.32874500       0.52487800       0.20461500       0.41302900
O        3.09660000       8.58615000       1.09840000      -1.24918200      -1.55977600      -1.04661800       1.63042000
O       10.03210000       0.75800000       1.28598000      -1.37108600       0.69012600      -0.52259200       0.61781000
O        0.80167000       3.12035000      23.41720000      -1.25555100       0.04682500      -0.47480500      -2.07954600
O        2.77437000       1.32205000       5.58770000      -1.39039900      -1.65112800      -0.73275300       1.10449400
O        1.33277000       4.28798000      28.95100000      -1.38384400      -0.21861000       0.70490800       2.88029100
O        5.85083000       6.98214000       2.17536000      -1.33207900       0.58182900      -2.54083800      -0.13848900
O       10.06412000       5.60937000      24.70460000      -1.34246300       0.36825300       0.71615200       2.35551500
O        8.66683000       7.24488000      23.24140000      -1.28949100      -1.26366700       0.77446700      -0.31088000
O        6.40947000       3.60417000       0.49888000      -1.32657900      -1.62876800      -0.34660600      -0.03223800
O        7.15800000       6.00763000       6.15172000      -1.28407600      -1.53191600       1.51984100       0.09465300
O        9.83749000       7.56065000       6.31590000      -1.33309800       0.89368100      -1.02460000       0.48463200
O        1.99391000       7.67041000       5.27958000      -1.36505200       1.02878100      -0.10620500      -0.34558400
O        2.46518000       6.32527000       2.68776000      -1.34722200      -0.99660700       1.81469200      -0.17828800
O        2.69981000       2.27491000      28.04900000      -1.35261200      -0.44634500      -0.99094000      -1.71721700
O        4.55477000       1.76307000      30.00285000      -1.34202100      -0.89757800      -0.48222300      -0.16066400
O        5.76361000       3.67986000       7.28000000      -1.30733900       0.76692400       0.35144300       0.30140000
O        7.21449000       0.93030000      24.60590000      -1.32326500       1.90445500       2.03251400      -1.35815600
O        4.51346000       7.24577000       6.76073000      -1.26814900      -1.25562000       0.43973200       0.27612300
O        9.19730000       4.74328000      27.01500000      -1.32865900       0.10432000      -1.06032200      -1.25107000
O        9.73194000       5.00785000       6.98387000      -1.31279000       0.06387900      -0.66469100       0.35223000
O        0.31446000       1.28428000       7.10667000      -1.26206400      -0.06220700       1.25008300       0.76624000
O        2.94995000       4.14098000       7.36448000      -1.28806800       0.07848700      -0.19411100      -0.43933400
O        2.76837000       5.45340000      23.23100000      -1.28893700       0.61037200       0.31697300       1.26465300
O       10.08006000       2.01503000       3.99784000      -1.29070200       1.68605200       0.17087200      -0.49110600
O        4.22948000       3.82795000       4.30810000      -1.32360300      -0.64216900      -0.79672000      -1.66658800
O        5.49502000       0.50219000       3.60927000      -1.30779600       0.63601800      -1.40700000       0.38694400
O        3.77880000       6.40159000      27.72560000      -1.41020800      -0.93943100      -2.36558600       1.41859400
O        5.73359000       4.65153000      26.80540000      -1.32224200       0.07591000      -0.17892300       0.07517500
O        2.32347000       3.32803000       1.77110000      -1.30891100      -1.50851100       1.79215500       1.71962600
O        0.86672000       7.25216000      29.33590000      -1.35731700      -1.31750800       1.64382200      -0.82543800
O        1.33729000       0.22306000      27.36470000      -1.35448900       0.01721500      -0.38412300      -0.44913700
O        6.53534000       4.43811000       3.21005000      -1.32711800       0.61247800      -0.99428500      -0.49717400
O        8.94704000       4.22366000       4.15217000      -1.30025300      -0.09237500       0.27779200       1.62921900
O        6.17383000       0.85927000       7.01544000      -1.30984300       0.24066800       0.32586400       0.30775900
H        8.13737000       3.19418000      22.30620000       0.58768200       0.04784400      -0.13016300       0.47307800
H        9.21347000       3.17162000      23.35580000       0.68797900       3.34268200      -0.20114800       0.59266700
H        7.75725000       7.36974000       1.69336000       0.63181700       0.18933700      -0.41970700      -0.06595900
H        9.09166000       8.18199000       1.71010000       0.64104500      -0.41433300      -1.46402300      -0.81571900
H        9.59227000       3.34356000      29.66960000       0.63965600      -0.31469400      -0.61578400      -0.20973700
H        1.58175000       8.43088000      22.84840000       0.62594000      -0.79684000      -0.11402100       0.51100800
H        5.04894000       2.19192000      22.81500000       0.61001400      -0.10571000      -0.55058200      -0.55713900
H        5.42880000       3.51442000      23.43980000       0.65387300      -0.51671200      -0.51756400       0.69636500
H        6.56421000       3.34476000      27.45790000       0.65718400       0.83462800       0.34647000      -0.06236700
H        6.81319000       1.90537000      27.22480000       0.66070300       1.11628200       0.09032800       0.39720900
H        6.82955000       6.34489000      29.54100000       0.62452900      -1.11309000       0.51936900      -0.36359800
H        2.63868000       3.73614000      24.97740000       0.65918000      -0.81705700       1.22447400      -0.36377800
H        7.62457000       0.73078000       5.90724000       0.67872600      -0.39614800      -0.01850800      -0.26146700
H        9.76882000       5.89592000       1.57830000       0.69096300      -0.30312600       0.12311700       0.02975000
H        9.02169000       7.08425000      28.98650000       0.64941600       0.17281100      -0.00218900      -0.05505800
H        5.99323000       5.16187000      29.76780000       0.63775200      -0.57461600      -0.15571200       0.30499100
H        6.26281000       5.96521000      23.75430000       0.66074200      -0.13372800       0.24340600       0.09151300
H        4.11034000       6.60148000      23.44610000       0.65082600       0.33510600       1.39893500       0.66113500
H        4.37907000       8.03537000      22.97800000       0.61593400      -0.03139800       0.51399700      -0.53084500
H        2.57686000       0.37913000       5.30389000       0.68446900       0.26136200       0.53977400       0.16645400
H        8.44603000       6.12901000      27.90300000       0.66132300      -0.10576500       1.07949900       0.43164400
H        0.06282000       5.23951000      23.87700000       0.64859600       0.46261600      -1.47893000      -2.28734600
H        8.41700000       0.39730000      25.83900000       0.66596800      -1.08854200       1.12159000      -0.87571900
H        8.75367000       8.10786000      26.78410000       0.64351100       0.11425700      -0.33389500       0.34583900
H        3.66865000       2.73783000      24.75020000       0.69052000       0.82282300      -0.50071100      -0.25100600
H        7.24559000       0.43651000       4.40664000       0.66761700       0.45989800       0.10145400       0.79761900
H        2.70908000       8.59484000      26.19280000       0.66448500       0.02120700       0.44949400       0.56884500
H        3.59246000       8.00806000      25.12980000       0.68128100       0.72471400       0.28122900       0.13829800
H        9.86413000       4.74337000       2.56705000       0.65571500      -0.05089000      -0.11018200       0.41755600
H        8.51112000       2.55583000      28.81560000       0.67591500       0.33701300       0.05332300       0.71657400
H        5.20211000       8.75886000      26.93310000       0.68050800      -0.15151600      -0.35868800       0.34195800
H        3.12289000       7.63479000       1.40191000       0.64688900       0.57301600       0.80635100      -0.46139700
H        2.29628000       0.02110000       1.64825000       0.59422400       0.89239000       0.40801800      -0.97832600
H        0.11237000       1.42968000       1.93938000       0.67408800      -0.08954900       0.14602200       0.31346600
H        9.82945000       1.25870000       0.49124000       0.70202200      -0.52748700       0.48844000      -0.64983200
H        1.15902000       2.32678000      23.84710000       0.65474100       0.03833300      -0.03631100      -0.06934900
H        0.83015000       2.91873000      22.40090000       0.55315500       0.15171200       0.28175800       2.09010300
H        6.15580000       8.21734000      28.10840000       0.64845300      -0.30325800       0.40095900      -0.94617400
H        3.44125000       1.69818000       5.05756000       0.67134600       1.37640800       0.70603000      -1.09941600
H        1.86825000       3.54510000      28.67170000       0.69932600       0.55828500      -0.87357600      -0.85791000
H        0.90019000       4.69418000      28.23470000       0.65966900      -0.82103900       0.35520500      -1.67376100
H        7.16605000       4.74914000      23.61730000       0.67606800       1.99699200      -0.85691700      -0.86550000
H        6.15949000       6.10735000       2.62564000       0.65303300      -0.44942900       1.60992800      -0.18377400
H        5.70085000       6.58248000       1.26261000       0.65877300       0.01892500       0.96528800       0.30468600
H        9.34733000       6.22175000      24.54300000       0.70508200      -0.42486600       0.49346000      -0.11195700
H        8.23156000       7.12439000      22.36350000       0.56801300       0.46504400      -0.23674500       0.22837300
H        5.73012000       2.92978000       0.15778000       0.67453700       0.77086600       0.59670400       0.49206700
H        6.49062000       6.76757000       6.18741000       0.62560500       1.37268200      -1.14756900      -0.10494600
H        7.24630000       3.36753000       0.10320000       0.65227300       0.90350100      -0.51820200      -0.20189500
H        8.04410000       7.89512000      23.63350000       0.65346100       0.48770200       0.10539000       0.26714800
H        6.53499000       5.28874000       6.32175000       0.64606900       0.17346000      -0.51876100       0.10804600
H       10.01240000       8.14142000       7.05620000       0.66303500      -0.19862600       0.76258300       0.27619100
H        9.06062000       7.87080000       5.86742000       0.69842400      -1.12577800       0.68024800      -0.65371600
H        1.06254000       7.64655000       5.58253000       0.68685500      -0.42873500      -0.12813300       0.10758200
H        3.22358000       5.83523000       2.92914000       0.65584900       1.06108300      -1.19066600       0.17969700
H        2.77269000       2.56746000      27.09010000       0.67511600       0.61730400       0.16406600       1.00843900
H        2.01805000       7.27148000       4.39671000       0.67854300       0.09964700      -0.28460900      -0.31852900
H        2.16247000       1.43103000      27.82220000       0.67373200       0.23687400       0.83033400       0.79084000
H        4.14302000       1.09956000       0.45122000       0.66422900       0.46851300      -0.25329300       0.40100600
H        3.93122000       1.64991000      29.24520000       0.67009200       0.54605400       0.92158400      -0.27747000
H        4.91408000       4.00716000       7.01078000       0.65439900      -1.23656000       0.71198600       0.20551500
H        7.26972000       1.89778000      24.26200000       0.64524700      -0.22291500      -2.23727900       0.67951200
H        5.78173000       2.86749000       6.78123000       0.65926600       0.52770900      -1.14844000      -0.09322000
H        6.33688000       0.73606000      24.85460000       0.68427200      -1.66463000      -0.03730900       0.44975500
H        2.77364000       2.78168000       1.19469000       0.63652000       1.73846000      -1.85011300      -2.05608000
H        3.63043000       7.33782000       6.28496000       0.65555000       1.05151200      -0.07753700       0.65517800
H        4.31970000       7.44250000       7.72185000       0.55921900       0.09613700      -0.33295400      -1.09521700
H        8.70004000       3.90110000      26.85220000       0.65370800       0.10436500       0.73783000       0.67312900
H        8.77841000       5.08523000       7.06171000       0.63202500      -0.56553000      -0.15231400       0.08701900
H        1.27615000       1.35236000       6.93475000       0.63563400      -0.36362900       0.15035700      -0.09984100
H        9.92690000       5.94933000       6.88763000       0.66480400       0.30539900       0.39207900      -0.25609200
H        9.62258000       4.86514000      26.11050000       0.66241700      -0.35356900       0.40216900       0.98157400
H        0.06914000       2.12420000       7.59865000       0.59929100       0.46599000      -1.17543900      -0.77598600
H        2.88315000       4.62040000       6.52248000       0.64047500      -0.10398800      -0.02213900       0.13195700
H        2.81263000       3.21482000       7.10483000       0.65270300      -0.03203800       0.14149700      -0.06637400
H        1.78408000       5.79088000       2.23462000       0.69058500      -0.17637200      -0.49554800       0.33690100
H        0.85344000       1.82242000       4.28264000       0.62982200      -0.30944500       0.28865500       0.01824800
H        3.72306000       3.62132000       3.46852000       0.60841900       0.13880000       0.34234400       1.27933600
H        9.54913000       1.38767000       4.46673000       0.68287700      -1.11220700      -1.12128200       0.66518500
H        1.98110000       5.99902000      23.40040000       0.64517600       0.19307500      -0.23628400      -0.49345800
H        5.14239000       3.87796000       3.91148000       0.67586800      -0.00160100       0.48185300       0.49970600
H        5.55817000       8.54371000       2.94925000       0.66437700      -0.17070000       0.23328900       0.42029200
H        5.19471000       1.24949000       3.12791000       0.63936300      -0.32867500       1.03164200      -0.71495400
H        0.53489000       8.23098000      24.10900000       0.65476900       1.24740600       0.29987800      -1.02953600
H        3.79616000       7.09195000      27.08630000       0.69234800       0.86048400       1.34188000      -0.79334400
H        6.00691000       4.69244000      25.88280000       0.65013600       0.21505000       0.08364000      -0.25280400
H        4.57674000       6.21013000      28.24590000       0.68820400       0.01335300       0.96884100      -0.32740100
H        4.83195000       4.99603000      26.80360000       0.66945600      -0.34723400       0.12140900       0.25760600
H        1.78225000       3.88762000       1.18411000       0.66579000      -0.05002600      -0.10499800       0.29942900
H        2.81279000       5.07893000      22.34900000       0.61462200      -0.62844000       0.02273800      -0.42345000
H        0.72389000       7.66043000       0.04952000       0.67064100      -0.05328900       0.62734800       0.64459000
H        1.30169000       6.46075000      29.51500000       0.70872200       1.41180700      -2.53078700       0.27860400
H        0.46276000       0.18987000      26.91840000       0.69291300      -0.09014500       0.22131700      -0.08808900
H        1.35803000       8.23422000      27.95630000       0.67953900      -0.06059400      -0.00825400       0.36443100
H        6.57480000       3.94346000       2.34231000       0.66378000      -0.00486100       0.58398500       0.45830900
H        7.40655000       4.19896000       3.68544000       0.66051700      -0.59570100       0.48497300      -0.65193000