 vasp.6.4.3 19Mar24 (build Sep  4 2024 12:23:58) complex                         
 executed on              LinuxNV date 2025.10.01  16:26:35
 running    4 mpi-ranks, with    1 threads/rank, on    1 nodes
 distrk:  each k-point on    2 cores,    2 groups
 distr:  one band on NCORE=   1 cores,    2 groups
 OpenACC runtime initialized ...    4 GPUs detected


--------------------------------------------------------------------------------------------------------


 INCAR:
   ENCUT = 800.000000
   SIGMA = 0.100000
   EDIFF = 1.00e-07
   ALGO = fast
   METAGGA = R2SCAN
   PREC = Accurate
   IBRION = -1
   ICHARG = 2
   ISMEAR = 0
   ISTART = 0
   KPAR = 2
   NELM = 160
   NPAR = 2
   NCORE = 1
   LAECHG = .TRUE.
   LASPH = .TRUE.
   LVHAR = .TRUE.
   LMIXTAU = .TRUE.
   LREAL = Auto

 POTCAR:    PAW_PBE Cu 22Jun2005                  
 POTCAR:    PAW_PBE O_h 06Feb2004                 
 POTCAR:    PAW_PBE H_h 06Feb2004                 
 POTCAR:    PAW_PBE Cu 22Jun2005                  
   VRHFIN =Cu: d10 p1                                                                               
   LEXCH  = PE                                                                                      
   EATOM  =  1390.9808 eV,  102.2342 Ry                                                             
                                                                                                    
   TITEL  = PAW_PBE Cu 22Jun2005                                                                    
   LULTRA =        F    use ultrasoft PP ?                                                          
   IUNSCR =        1    unscreen: 0-lin 1-nonlin 2-no                                               
   RPACOR =    2.000    partial core radius                                                         
   POMASS =   63.546; ZVAL   =   11.000    mass and valenz                                          
   RCORE  =    2.300    outmost cutoff radius                                                       
   RWIGS  =    2.200; RWIGS  =    1.164    wigner-seitz radius (au A)                               
   ENMAX  =  295.446; ENMIN  =  221.585 eV                                                          
   ICORE  =        3    local potential                                                             
   LCOR   =        T    correct aug charges                                                         
   LPAW   =        T    paw PP                                                                      
   EAUG   =  586.980                                                                                
   DEXC   =    0.000                                                                                
   RMAX   =    2.344    core radius for proj-oper                                                   
   RAUG   =    1.300    factor for augmentation sphere                                              
   RDEP   =    2.302    radius for radial grids                                                     
   RDEPT  =    1.771    core radius for aug-charge                                                  
                                                                                                    
   Atomic configuration                                                                             
    9 entries                                                                                       
     n  l   j            E        occ.                                                              
     1  0  0.50     -8850.2468   2.0000                                                             
     2  0  0.50     -1062.3498   2.0000                                                             
     2  1  1.50      -916.8226   6.0000                                                             
     3  0  0.50      -114.6929   2.0000                                                             
     3  1  1.50       -72.1325   6.0000                                                             
     3  2  2.50        -5.0394  10.0000                                                             
     4  0  0.50        -4.6097   1.0000                                                             
     4  1  0.50        -4.0817   0.0000                                                             
     4  3  2.50        -1.3606   0.0000                                                             
   Description                                                                                      
     l       E           TYP  RCUT    TYP  RCUT                                                     
     2     -5.0393973     23  2.200                                                                 
     2     10.8846608     23  2.200                                                                 
     0     -4.6097109     23  2.200                                                                 
     0      8.2520465     23  2.200                                                                 
     1     -2.7211652     23  2.200                                                                 
     1     21.7055443     23  2.200                                                                 
     3      2.7211652     23  2.300                                                                 
  local pseudopotential read in
  partial core-charges read in
  partial kinetic energy density read in
  atomic valenz-charges read in
  non local Contribution for L=            2  read in
    real space projection operators read in
  non local Contribution for L=            2  read in
    real space projection operators read in
  non local Contribution for L=            0  read in
    real space projection operators read in
  non local Contribution for L=            0  read in
    real space projection operators read in
  non local Contribution for L=            1  read in
    real space projection operators read in
  non local Contribution for L=            1  read in
    real space projection operators read in
    PAW grid and wavefunctions read in
 
   number of l-projection  operators is LMAX  =            6
   number of lm-projection operators is LMMAX =           18
 
 POTCAR:    PAW_PBE O_h 06Feb2004                 
   VRHFIN =O: s2p4                                                                                  
   LEXCH  = PE                                                                                      
   EATOM  =   432.3788 eV,   31.7789 Ry                                                             
                                                                                                    
   TITEL  = PAW_PBE O_h 06Feb2004                                                                   
   LULTRA =        F    use ultrasoft PP ?                                                          
   IUNSCR =        1    unscreen: 0-lin 1-nonlin 2-no                                               
   RPACOR =    0.800    partial core radius                                                         
   POMASS =   16.000; ZVAL   =    6.000    mass and valenz                                          
   RCORE  =    1.100    outmost cutoff radius                                                       
   RWIGS  =    1.400; RWIGS  =    0.741    wigner-seitz radius (au A)                               
   ENMAX  =  700.000; ENMIN  =  500.000 eV                                                          
   ICORE  =        2    local potential                                                             
   LCOR   =        T    correct aug charges                                                         
   LPAW   =        T    paw PP                                                                      
   EAUG   =  888.804                                                                                
   DEXC   =    0.000                                                                                
   RMAX   =    1.128    core radius for proj-oper                                                   
   RAUG   =    1.300    factor for augmentation sphere                                              
   RDEP   =    1.125    radius for radial grids                                                     
   RDEPT  =    1.088    core radius for aug-charge                                                  
                                                                                                    
   Atomic configuration                                                                             
    4 entries                                                                                       
     n  l   j            E        occ.                                                              
     1  0  0.50      -514.6923   2.0000                                                             
     2  0  0.50       -23.9615   2.0000                                                             
     2  1  0.50        -9.0305   4.0000                                                             
     3  2  1.50        -9.5241   0.0000                                                             
   Description                                                                                      
     l       E           TYP  RCUT    TYP  RCUT                                                     
     0    -23.9615319     23  1.100                                                                 
     0    -25.3221145     23  1.100                                                                 
     1     -9.0304911     23  1.100                                                                 
     1     -5.4802209     23  1.100                                                                 
     2     -9.5240782      7  1.100                                                                 
  local pseudopotential read in
  partial core-charges read in
  partial kinetic energy density read in
  atomic valenz-charges read in
  non local Contribution for L=            0  read in
    real space projection operators read in
  non local Contribution for L=            0  read in
    real space projection operators read in
  non local Contribution for L=            1  read in
    real space projection operators read in
  non local Contribution for L=            1  read in
    real space projection operators read in
    PAW grid and wavefunctions read in
 
   number of l-projection  operators is LMAX  =            4
   number of lm-projection operators is LMMAX =            8
 
 POTCAR:    PAW_PBE H_h 06Feb2004                 
   VRHFIN =H: ultrasoft test                                                                        
   LEXCH  = PE                                                                                      
   EATOM  =    12.4884 eV,    0.9179 Ry                                                             
                                                                                                    
   TITEL  = PAW_PBE H_h 06Feb2004                                                                   
   LULTRA =        F    use ultrasoft PP ?                                                          
   IUNSCR =        0    unscreen: 0-lin 1-nonlin 2-no                                               
   RPACOR =    0.000    partial core radius                                                         
   POMASS =    1.000; ZVAL   =    1.000    mass and valenz                                          
   RCORE  =    0.800    outmost cutoff radius                                                       
   RWIGS  =    0.700; RWIGS  =    0.370    wigner-seitz radius (au A)                               
   ENMAX  =  700.000; ENMIN  =  350.000 eV                                                          
   RCLOC  =    0.701    cutoff for local pot                                                        
   LCOR   =        T    correct aug charges                                                         
   LPAW   =        T    paw PP                                                                      
   EAUG   = 1000.000                                                                                
   RMAX   =    0.819    core radius for proj-oper                                                   
   RAUG   =    1.000    factor for augmentation sphere                                              
   RDEP   =    0.817    radius for radial grids                                                     
   RDEPT  =    0.817    core radius for aug-charge                                                  
                                                                                                    
   Atomic configuration                                                                             
    2 entries                                                                                       
     n  l   j            E        occ.                                                              
     1  0  0.50        -6.4927   1.0000                                                             
     2  1  0.50        -3.4015   0.0000                                                             
   Description                                                                                      
     l       E           TYP  RCUT    TYP  RCUT                                                     
     0     -6.4927493     23  0.800                                                                 
     0      6.8029130     23  0.800                                                                 
     1     -6.8029130     23  0.800                                                                 
  local pseudopotential read in
  atomic valenz-charges read in
  non local Contribution for L=            0  read in
    real space projection operators read in
  non local Contribution for L=            0  read in
    real space projection operators read in
  non local Contribution for L=            1  read in
    real space projection operators read in
    PAW grid and wavefunctions read in
 
   number of l-projection  operators is LMAX  =            3
   number of lm-projection operators is LMMAX =            5
 
 Optimization of the real space projectors (new method)

 maximal supplied QI-value         = 16.25
 optimisation between [QCUT,QGAM] = [ 14.46, 28.93] = [ 58.58,234.33] Ry 
 Optimized for a Real-space Cutoff    1.35 Angstroem

   l    n(q)    QCUT    max X(q) W(low)/X(q) W(high)/X(q)  e(spline) 
   2     11    14.464     4.610    0.56E-04    0.10E-03    0.52E-06
   2     11    14.464     8.522    0.88E-04    0.16E-03    0.84E-06
   0     12    14.464    51.609    0.44E-04    0.29E-04    0.63E-06
   0     12    14.464    27.747    0.38E-04    0.27E-04    0.60E-06
   1     11    14.464    20.408    0.64E-04    0.66E-04    0.14E-06
   1     11    14.464    13.425    0.56E-04    0.59E-04    0.13E-06
 Optimization of the real space projectors (new method)

 maximal supplied QI-value         = 34.20
 optimisation between [QCUT,QGAM] = [ 14.37, 28.73] = [ 57.79,231.16] Ry 
 Optimized for a Real-space Cutoff    0.98 Angstroem

   l    n(q)    QCUT    max X(q) W(low)/X(q) W(high)/X(q)  e(spline) 
   0      8    14.366   280.207    0.54E-04    0.14E-03    0.22E-06
   0      8    14.366   228.978    0.55E-04    0.14E-03    0.22E-06
   1      8    14.366    86.127    0.24E-03    0.25E-03    0.26E-06
   1      8    14.366    65.368    0.24E-03    0.24E-03    0.26E-06
 Optimization of the real space projectors (new method)

 maximal supplied QI-value         = 47.24
 optimisation between [QCUT,QGAM] = [ 14.17, 28.82] = [ 56.25,232.56] Ry 
 Optimized for a Real-space Cutoff    0.95 Angstroem

   l    n(q)    QCUT    max X(q) W(low)/X(q) W(high)/X(q)  e(spline) 
   0      8    14.173    34.671    0.25E-03    0.45E-03    0.25E-06
   0      8    14.173    17.046    0.24E-03    0.43E-03    0.25E-06
   1      8    14.173     1.978    0.58E-04    0.22E-03    0.31E-06
 -----------------------------------------------------------------------------
|                                                                             |
|               ----> ADVICE to this user running VASP <----                  |
|                                                                             |
|     You enforced a specific xc type in the INCAR file but a different       |
|     type was found in the POTCAR file.                                      |
|     I HOPE YOU KNOW WHAT YOU ARE DOING!                                     |
|                                                                             |
 -----------------------------------------------------------------------------

  PAW_PBE Cu 22Jun2005                  :
 energy of atom  1       EATOM=-1390.9808
 kinetic energy error for atom=    0.0007 (will be added to EATOM!!)
  PAW_PBE O_h 06Feb2004                 :
 energy of atom  2       EATOM= -432.3788
 kinetic energy error for atom=    0.0500 (will be added to EATOM!!)
  PAW_PBE H_h 06Feb2004                 :
 energy of atom  3       EATOM=  -12.4884
 kinetic energy error for atom=    0.0035 (will be added to EATOM!!)
 
 
 POSCAR: Cu O  H
  positions in cartesian coordinates
  No initial velocities read in


 exchange-correlation table for R2SCAN
   RHO(1)=    0.500       N(1)  =     2000
   RHO(2)=  100.500       N(2)  =     4000
 


--------------------------------------------------------------------------------------------------------


 ion  position               nearest neighbor table
   1  0.680  0.121  0.329-   5 2.45   2 2.46  17 2.47  32 2.56  15 2.56   8 2.58  18 2.59   4 2.62
                            16 2.63
   2  0.922  0.123  0.326-   1 2.46   5 2.47   6 2.48   3 2.52  29 2.56  16 2.56  13 2.56  18 2.62
                            19 2.71
   3  0.170  0.117  0.328-  13 2.50   2 2.52   6 2.52  19 2.55  30 2.56   4 2.56   7 2.56  20 2.60
                            14 2.61
   4  0.422  0.118  0.322- 135 2.09  31 2.49   7 2.55  14 2.55   3 2.56  15 2.56   8 2.59   1 2.62
                            17 2.64  20 2.67
   5  0.798  0.364  0.325- 104 2.25   1 2.45   2 2.47   6 2.54   8 2.54  12 2.61   9 2.62  18 2.65
                            21 2.66  22 2.69
   6  0.047  0.365  0.331-   9 2.43  23 2.48   2 2.48  22 2.50  19 2.52   3 2.52   5 2.54   7 2.55
                            10 2.64
   7  0.299  0.368  0.330-  11 2.38  20 2.44  23 2.45   8 2.53   4 2.55   6 2.55   3 2.56  24 2.57
                            10 2.60
   8  0.548  0.371  0.333-  11 2.31  24 2.40  17 2.46   7 2.53   5 2.54   1 2.58  21 2.58   4 2.59
                            12 2.67
   9  0.939  0.612  0.333-  22 2.37  26 2.40  10 2.40   6 2.43  25 2.44  13 2.52  16 2.55  12 2.57
                             5 2.62
  10  0.175  0.628  0.331-  26 2.39   9 2.40  14 2.44  13 2.48  23 2.53  11 2.59  27 2.60   7 2.60
                             6 2.64
  11  0.429  0.594  0.330-   8 2.31  24 2.32   7 2.38  27 2.55  10 2.59  28 2.61  12 2.63  14 2.69
                            15 2.72
  12  0.686  0.630  0.330-  16 2.39  28 2.40  15 2.49  25 2.50   9 2.57   5 2.61  11 2.63  21 2.64
                             8 2.67
  13  0.048  0.869  0.326-  16 2.42  10 2.48   3 2.50  29 2.51   9 2.52   2 2.56  26 2.57  14 2.58
                            30 2.72
  14  0.303  0.863  0.325-  10 2.44  15 2.54  31 2.54   4 2.55  30 2.56  13 2.58  27 2.59   3 2.61
                            11 2.69
  15  0.552  0.869  0.330-  31 2.31  28 2.49  12 2.49  32 2.51  14 2.54   4 2.56   1 2.56  16 2.61
                            11 2.72
  16  0.810  0.862  0.329-  12 2.39  13 2.42  25 2.47  32 2.51  29 2.53   9 2.55   2 2.56  15 2.61
                             1 2.63
  17  0.550  0.190  0.395-  31 2.34   8 2.46   1 2.47  33 2.49  20 2.50  32 2.55  40 2.56  18 2.61
                             4 2.64  24 2.68  37 2.69  21 2.70
  18  0.806  0.206  0.400-  37 2.44  34 2.46  21 2.48  38 2.51  22 2.54  29 2.54  19 2.57   1 2.59
                            17 2.61  32 2.61   2 2.62   5 2.65
  19  0.059  0.200  0.400-  35 2.43  29 2.46  20 2.47  38 2.48  23 2.49  39 2.51   6 2.52   3 2.55
                            18 2.57  30 2.58  22 2.67   2 2.71
  20  0.303  0.207  0.396-   7 2.44  19 2.47  23 2.48  30 2.48  17 2.50  39 2.51  36 2.55  31 2.58
                             3 2.60  40 2.60  24 2.61   4 2.67
  21  0.688  0.453  0.401-  22 2.40  37 2.42  41 2.46  44 2.46  18 2.48  28 2.49  25 2.56   8 2.58
                            24 2.58  12 2.64   5 2.66  17 2.70
  22  0.925  0.460  0.398-   9 2.37  21 2.40  25 2.42  41 2.44   6 2.50  38 2.53  26 2.53  18 2.54
                            23 2.55  42 2.58  19 2.67   5 2.69
  23  0.176  0.449  0.397-   7 2.45   6 2.48  20 2.48  19 2.49  39 2.50  42 2.51  26 2.52  10 2.53
                            22 2.55  24 2.61  43 2.63  27 2.71
  24  0.433  0.463  0.397-  11 2.32   8 2.40  27 2.47  43 2.50  28 2.50  44 2.54  40 2.56   7 2.57
                            21 2.58  20 2.61  23 2.61  17 2.68
  25  0.815  0.705  0.397-  22 2.42   9 2.44  16 2.47  26 2.48  28 2.48  32 2.49  12 2.50  41 2.51
                            45 2.53  29 2.55  48 2.55  21 2.56
  26  0.059  0.702  0.396-  10 2.39   9 2.40  25 2.48  23 2.52  42 2.52  22 2.53  45 2.56  13 2.57
                            29 2.58  46 2.59  30 2.61  27 2.62
  27  0.318  0.711  0.398-  30 2.45  24 2.47  47 2.47  31 2.50  43 2.52  46 2.53  11 2.55  28 2.56
                            14 2.59  10 2.60  26 2.62  23 2.71
  28  0.570  0.700  0.396-  12 2.40  32 2.44  25 2.48  21 2.49  15 2.49  24 2.50  44 2.52  48 2.55
                            27 2.56  11 2.61  47 2.62  31 2.65
  29  0.936  0.959  0.396-  19 2.46  13 2.51  16 2.53  18 2.54  25 2.55  34 2.55  32 2.55   2 2.56
                            45 2.57  35 2.57  26 2.58  30 2.65
  30  0.198  0.953  0.397-  31 2.43  27 2.45  20 2.48  36 2.49  46 2.50   3 2.56  14 2.56  19 2.58
                            35 2.60  26 2.61  29 2.65  13 2.72
  31  0.436  0.959  0.390-  15 2.31  17 2.34  30 2.43   4 2.49  27 2.50  32 2.52  14 2.54  20 2.58
                            28 2.65  36 2.70  47 2.70  33 2.71
  32  0.684  0.945  0.397-  28 2.44  48 2.47  25 2.49  16 2.51  15 2.51  31 2.52  17 2.55  29 2.55
                            33 2.56   1 2.56  34 2.59  18 2.61
  33  0.562  0.042  0.466-  17 2.49  47 2.54  36 2.54  48 2.54  52 2.54  40 2.54  63 2.54  49 2.54
                            37 2.54  34 2.54  32 2.56  31 2.71
  34  0.813  0.042  0.466-  18 2.46  45 2.54  35 2.54  48 2.54  50 2.54  38 2.54  64 2.54  49 2.54
                            37 2.54  33 2.54  29 2.55  32 2.59
  35  0.063  0.042  0.466-  19 2.43  34 2.54  46 2.54  45 2.54  61 2.54  36 2.54  51 2.54  39 2.54
                            50 2.54  38 2.54  29 2.57  30 2.60
  36  0.313  0.042  0.466-  30 2.49  33 2.54  47 2.54  46 2.54  62 2.54  35 2.54  52 2.54  51 2.54
                            40 2.54  39 2.54  20 2.55  31 2.70
  37  0.688  0.292  0.466-  21 2.42  18 2.44  38 2.54  40 2.54  41 2.54  44 2.54  53 2.54  56 2.54
                            49 2.54  34 2.54  33 2.54  17 2.69
  38  0.937  0.292  0.466-  19 2.48  18 2.51  22 2.53  41 2.54  37 2.54  42 2.54  53 2.54  34 2.54
                            39 2.54  54 2.54  50 2.54  35 2.54
  39  0.187  0.292  0.466-  23 2.50  20 2.51  19 2.51  42 2.54  43 2.54  54 2.54  55 2.54  38 2.54
                            35 2.54  51 2.54  36 2.54  40 2.54
  40  0.438  0.292  0.466-  44 2.54  37 2.54  43 2.54  56 2.54  33 2.54  55 2.54  52 2.54  36 2.54
                            39 2.54  24 2.56  17 2.56  20 2.60
  41  0.813  0.542  0.466-  22 2.44  21 2.46  25 2.51  38 2.54  37 2.54  42 2.54  45 2.54  57 2.54
                            48 2.54  53 2.54  60 2.54  44 2.54
  42  0.063  0.542  0.466-  23 2.51  26 2.52  39 2.54  38 2.54  41 2.54  43 2.54  46 2.54  58 2.54
                            54 2.54  45 2.54  57 2.54  22 2.58
  43  0.313  0.542  0.466-  24 2.50  27 2.52  44 2.54  40 2.54  39 2.54  42 2.54  47 2.54  46 2.54
                            55 2.54  59 2.54  58 2.54  23 2.63
  44  0.562  0.542  0.466-  21 2.46  28 2.52  40 2.54  43 2.54  37 2.54  47 2.54  59 2.54  48 2.54
                            56 2.54  60 2.54  41 2.54  24 2.54
  45  0.937  0.792  0.466-  25 2.53  34 2.54  48 2.54  35 2.54  41 2.54  64 2.54  46 2.54  57 2.54
                            42 2.54  61 2.54  26 2.56  29 2.57
  46  0.187  0.792  0.466-  30 2.50  27 2.53  35 2.54  36 2.54  42 2.54  45 2.54  61 2.54  43 2.54
                            58 2.54  62 2.54  47 2.54  26 2.59
  47  0.438  0.792  0.466-  27 2.47  33 2.54  48 2.54  36 2.54  44 2.54  63 2.54  43 2.54  59 2.54
                            62 2.54  46 2.54  28 2.62  31 2.70
  48  0.688  0.792  0.466-  32 2.47  45 2.54  47 2.54  34 2.54  33 2.54  41 2.54  44 2.54  60 2.54
                            64 2.54  63 2.54  28 2.55  25 2.55
  49  0.688  0.125  0.534-  65 2.43  66 2.53  50 2.54  52 2.54  53 2.54  56 2.54  64 2.54  63 2.54
                            37 2.54  34 2.54  33 2.54  80 2.54
  50  0.937  0.125  0.534-  66 2.44  67 2.50  53 2.54  64 2.54  49 2.54  54 2.54  61 2.54  34 2.54
                            51 2.54  38 2.54  35 2.54  77 2.63
  51  0.187  0.125  0.534-  68 2.48  54 2.54  55 2.54  61 2.54  62 2.54  50 2.54  35 2.54  39 2.54
                            36 2.54  52 2.54  78 2.57  67 2.59
  52  0.438  0.125  0.534-  79 2.49  65 2.50  56 2.54  63 2.54  49 2.54  55 2.54  62 2.54  33 2.54
                            40 2.54  36 2.54  51 2.54  68 2.55
  53  0.813  0.375  0.534-  66 2.41  70 2.46  50 2.54  49 2.54  54 2.54  38 2.54  57 2.54  37 2.54
                            60 2.54  41 2.54  56 2.54  69 2.64
  54  0.063  0.375  0.534-  70 2.46  71 2.53  51 2.54  50 2.54  53 2.54  39 2.54  55 2.54  58 2.54
                            38 2.54  42 2.54  57 2.54  67 2.56
  55  0.313  0.375  0.534-  68 2.44  56 2.54  52 2.54  51 2.54  54 2.54  40 2.54  39 2.54  59 2.54
                            58 2.54  43 2.54  71 2.55  72 2.59
  56  0.562  0.375  0.534-  65 2.45  52 2.54  55 2.54  49 2.54  40 2.54  59 2.54  37 2.54  60 2.54
                            44 2.54  53 2.54  69 2.55  72 2.59
  57  0.937  0.625  0.534-  70 2.48  60 2.54  53 2.54  64 2.54  41 2.54  58 2.54  45 2.54  54 2.54
                            61 2.54  42 2.54  73 2.60  74 2.61
  58  0.187  0.625  0.534-  75 2.46  74 2.52  71 2.52  54 2.54  61 2.54  57 2.54  42 2.54  55 2.54
                            62 2.54  46 2.54  43 2.54  59 2.54
  59  0.438  0.625  0.534-  75 2.48  60 2.54  56 2.54  63 2.54  44 2.54  55 2.54  62 2.54  47 2.54
                            43 2.54  58 2.54  76 2.56  72 2.57
  60  0.688  0.625  0.534-  73 2.53  57 2.54  59 2.54  53 2.54  56 2.54  64 2.54  63 2.54  48 2.54
                            41 2.54  44 2.54  76 2.55  69 2.58
  61  0.063  0.875  0.534-  74 2.51  64 2.54  51 2.54  50 2.54  35 2.54  62 2.54  58 2.54  46 2.54
                            57 2.54  45 2.54  77 2.54  78 2.58
  62  0.313  0.875  0.534-  79 2.45  75 2.48  63 2.54  52 2.54  51 2.54  36 2.54  61 2.54  59 2.54
                            58 2.54  47 2.54  46 2.54  78 2.57
  63  0.562  0.875  0.534-  52 2.54  62 2.54  59 2.54  49 2.54  47 2.54  33 2.54  60 2.54  48 2.54
                            64 2.54  79 2.58  76 2.58  80 2.68
  64  0.813  0.875  0.534-  73 2.52  50 2.54  61 2.54  57 2.54  49 2.54  45 2.54  34 2.54  60 2.54
                            48 2.54  63 2.54  80 2.55  77 2.59
  65  0.569  0.210  0.600-  49 2.43  56 2.45  85 2.45  69 2.46  52 2.50  80 2.51  66 2.56  72 2.59
                            88 2.60  79 2.64  81 2.64  68 2.67
  66  0.821  0.218  0.600-  67 2.37  70 2.40  53 2.41  50 2.44  82 2.45  86 2.51  80 2.51  49 2.53
                            65 2.56  69 2.58  85 2.62  77 2.67
  67  0.054  0.205  0.604-  66 2.37  83 2.42  86 2.48  87 2.48  50 2.50  70 2.50  77 2.52  78 2.55
                            68 2.56  54 2.56  51 2.59  71 2.61
  68  0.306  0.219  0.601-  88 2.37  55 2.44  71 2.46  51 2.48  87 2.49  84 2.51  72 2.52  52 2.55
                            67 2.56  79 2.56  78 2.58  65 2.67
  69  0.678  0.460  0.605-  85 2.37  76 2.45  72 2.45  65 2.46  92 2.50  56 2.55  89 2.57  73 2.57
                            66 2.58  60 2.58  70 2.63  53 2.64
  70  0.938  0.456  0.600-  66 2.40  86 2.43  54 2.46  53 2.46  57 2.48  67 2.50  71 2.51  90 2.53
                            73 2.63  69 2.63  74 2.65  89 2.67
  71  0.185  0.461  0.603-  87 2.37  68 2.46  74 2.51  70 2.51  75 2.51  91 2.51  58 2.52  54 2.53
                            72 2.55  55 2.55  90 2.57  67 2.61
  72  0.437  0.462  0.605-  69 2.45  88 2.49  76 2.49  75 2.51  68 2.52  91 2.53  71 2.55  59 2.57
                            65 2.59  55 2.59  56 2.59  92 2.60
  73  0.806  0.713  0.604-  96 2.42  76 2.45  80 2.48  89 2.48  77 2.49  64 2.52  60 2.53  93 2.54
                            69 2.57  57 2.60  70 2.63  74 2.70
  74  0.071  0.715  0.603-  90 2.40  77 2.43  75 2.43  78 2.45  94 2.49  71 2.51  61 2.51  58 2.52
                            93 2.60  57 2.61  70 2.65  73 2.70
  75  0.311  0.707  0.600-  95 2.32  74 2.43  58 2.46  59 2.48  62 2.48  91 2.50  79 2.51  72 2.51
                            71 2.51  78 2.55  76 2.56  94 2.66
  76  0.564  0.705  0.604-  96 2.35  92 2.44  69 2.45  73 2.45  95 2.47  72 2.49  60 2.55  75 2.56
                            59 2.56  63 2.58  79 2.65  80 2.70
  77  0.943  0.949  0.605-  93 2.32  74 2.43  80 2.46  78 2.49  73 2.49  83 2.49  82 2.51  67 2.52
                            61 2.54  64 2.59  50 2.63  66 2.67
  78  0.188  0.959  0.605-  84 2.38  79 2.40  74 2.45  83 2.48  77 2.49  94 2.49  75 2.55  67 2.55
                            51 2.57  62 2.57  61 2.58  68 2.58
  79  0.425  0.961  0.602-  95 2.36  78 2.40  62 2.45  84 2.46  52 2.49  75 2.51  68 2.56  63 2.58
                            65 2.64  76 2.65  81 2.73
  80  0.701  0.968  0.605-  82 2.37  96 2.43  77 2.46  73 2.48  66 2.51  65 2.51  49 2.54  64 2.55
                            81 2.62  63 2.68  76 2.70
  81  0.564  0.053  0.674- 142 2.27  85 2.45  88 2.46  82 2.55  96 2.55  80 2.62  84 2.63  65 2.64
                            95 2.72  79 2.73
  82  0.814  0.065  0.668-  80 2.37  66 2.45  86 2.48  85 2.48  77 2.51  83 2.53  93 2.55  81 2.55
                            96 2.75
  83  0.064  0.052  0.670-  67 2.42  84 2.45  78 2.48  77 2.49  93 2.52  87 2.53  82 2.53  94 2.54
                            86 2.60
  84  0.305  0.048  0.668-  88 2.34  78 2.38  83 2.45  79 2.46  95 2.48  68 2.51  94 2.52  87 2.60
                            81 2.63
  85  0.677  0.298  0.668-  69 2.37  81 2.45  65 2.45  82 2.48  92 2.56  88 2.60  66 2.62  86 2.63
                            89 2.64
  86  0.936  0.309  0.669-  70 2.43  67 2.48  82 2.48  87 2.49  90 2.49  66 2.51  89 2.52  83 2.60
                            85 2.63
  87  0.181  0.307  0.668-  71 2.37  88 2.44  67 2.48  86 2.49  68 2.49  91 2.52  83 2.53  84 2.60
                            90 2.60
  88  0.421  0.278  0.667-  84 2.34  68 2.37  87 2.44  81 2.46  72 2.49  65 2.60  85 2.60  91 2.71

  89  0.810  0.557  0.672-  90 2.43  92 2.46  73 2.48  96 2.49  86 2.52  93 2.54  69 2.57  85 2.64
                            70 2.67
  90  0.049  0.561  0.669-  74 2.40  89 2.43  93 2.48  86 2.49  94 2.49  70 2.53  71 2.57  91 2.60
                            87 2.60
  91  0.305  0.556  0.671-  95 2.40  94 2.47  75 2.50  71 2.51  87 2.52  72 2.53  90 2.60  92 2.65
                            88 2.71
  92  0.567  0.560  0.673-  96 2.35  76 2.44  89 2.46  69 2.50  85 2.56  72 2.60  95 2.60  91 2.65

  93  0.933  0.809  0.671-  77 2.32  90 2.48  83 2.52  73 2.54  89 2.54  94 2.54  82 2.55  74 2.60
                            96 2.60
  94  0.183  0.799  0.673-  95 2.37  91 2.47  74 2.49  90 2.49  78 2.49  84 2.52  83 2.54  93 2.54
                            75 2.66
  95  0.416  0.797  0.664-  75 2.32  79 2.36  94 2.37  91 2.40  76 2.47  84 2.48  92 2.60  96 2.65
                            81 2.72
  96  0.677  0.794  0.667-  76 2.35  92 2.35  73 2.42  80 2.43  89 2.49  81 2.55  93 2.60  95 2.65
                            82 2.75
  97  0.224  0.836  0.942- 147 0.99 148 1.01
  98  0.452  0.427  0.068- 150 0.97 149 1.00
  99  0.973  0.214  0.996- 152 0.95 230 0.97
 100  0.066  0.512  0.820- 153 0.97 154 1.02
 101  0.544  0.942  0.997- 156 0.96 155 1.01
 102  0.799  0.488  0.778- 171 0.97 158 1.01
 103  0.338  0.842  0.136- 175 0.95 160 0.99
 104  0.763  0.366  0.251- 157 0.97 162 0.97   5 2.25
 105  0.081  0.509  0.986- 163 0.98 188 1.00
 106  0.709  0.751  0.216- 165 0.95 164 1.00
 107  0.527  0.294  0.163- 167 0.97 161 1.03
 108  0.137  0.754  0.751- 169 0.95 170 1.01
 109  0.626  0.153  0.836- 172 0.94 159 1.03
 110  0.205  0.284  0.205- 174 0.95 173 0.98
 111  0.604  0.746  0.844- 151 0.92 176 0.95
 112  0.022  0.556  0.205- 184 0.94 177 0.99
 113  0.357  0.178  0.017- 178 0.98 179 1.00
 114  0.608  0.675  0.044- 181 0.97 180 1.01
 115  0.748  0.838  0.919- 183 0.96 182 0.99
 116  0.615  0.432  0.876- 185 0.99 166 1.02
 117  0.063  0.011  0.784- 187 0.97 186 0.98
 118  0.819  0.887  0.147- 189 0.97 190 1.03
 119  0.505  0.544  0.224- 168 0.95 191 0.98
 120  0.250  0.345  0.864- 192 0.99 196 1.01
 121  0.864  0.034  0.861- 195 0.99 193 1.03
 122  0.380  0.248  0.771- 197 0.95 194 0.98
 123  0.416  0.060  0.894- 199 0.93 198 0.95
 124  0.114  0.146  0.082- 203 0.94 200 0.97
 125  0.415  0.775  0.782- 222 0.96 201 1.00
 126  0.624  0.432  0.970- 204 0.96 202 0.99
 127  0.051  0.950  0.231- 205 0.94 206 1.01
 128  0.043  0.458  0.083- 209 0.95 207 0.99
 129  0.997  0.728  0.875- 208 0.91 210 0.97
 130  0.234  0.747  0.216- 213 0.96 212 1.02
 131  0.821  0.777  0.775- 214 0.96 218 1.00
 132  0.270  0.485  0.128- 217 0.97 215 1.03
 133  0.529  0.054  0.095- 219 0.95 216 0.99
 134  0.036  0.199  0.909- 221 0.95 220 0.96
 135  0.436  0.180  0.255- 236 0.99 226 1.03   4 2.09
 136  0.721  0.186  0.015- 225 0.95 223 0.97
 137  0.304  0.380  0.955- 224 0.97 227 1.03
 138  0.919  0.210  0.193- 228 0.95 229 1.03
 139  0.792  0.954  0.062- 231 0.98 233 1.03
 140  0.531  0.519  0.757- 234 0.99 232 1.01
 141  0.967  0.787  0.972- 211 0.94 235 0.94
 142  0.579  0.008  0.749- 238 0.96 237 1.02  81 2.27
 143  0.781  0.327  0.103- 240 0.95 239 0.99
 144  0.073  0.881  0.129- 241 0.94 242 1.02
 145  0.346  0.610  0.873- 244 0.97 243 1.03
 146  0.527  0.966  0.196- 245 0.96 246 1.03
 147  0.268  0.839  0.971-  97 0.99
 148  0.254  0.741  0.927-  97 1.01
 149  0.415  0.353  0.046-  98 1.00
 150  0.384  0.448  0.089-  98 0.97
 151  0.674  0.806  0.852- 111 0.92
 152  0.887  0.189  0.006-  99 0.95
 153  0.981  0.480  0.809- 100 0.97
 154  0.045  0.604  0.839- 100 1.02
 155  0.567  0.842  0.011- 101 1.01
 156  0.454  0.961  0.005- 101 0.96
 157  0.679  0.332  0.239- 104 0.97
 158  0.839  0.464  0.748- 102 1.01
 159  0.615  0.261  0.849- 109 1.03
 160  0.403  0.919  0.127- 103 0.99
 161  0.521  0.391  0.182- 107 1.03
 162  0.827  0.315  0.232- 104 0.97
 163  0.019  0.424  0.987- 105 0.98
 164  0.665  0.649  0.215- 106 1.00
 165  0.776  0.758  0.237- 106 0.95
 166  0.652  0.522  0.858- 116 1.02
 167  0.515  0.316  0.131- 107 0.97
 168  0.505  0.549  0.255- 119 0.95
 169  0.130  0.676  0.773- 108 0.95
 170  0.095  0.837  0.769- 108 1.01
 171  0.794  0.598  0.781- 102 0.97
 172  0.568  0.089  0.852- 109 0.94
 173  0.230  0.339  0.178- 110 0.98
 174  0.141  0.210  0.197- 110 0.95
 175  0.342  0.833  0.168- 103 0.95
 176  0.558  0.789  0.820- 111 0.95
 177  0.061  0.456  0.197- 112 0.99
 178  0.281  0.166  0.037- 113 0.98
 179  0.316  0.239  0.992- 113 1.00
 180  0.555  0.592  0.059- 114 1.01
 181  0.664  0.709  0.068- 114 0.97
 182  0.664  0.888  0.928- 115 0.99
 183  0.793  0.898  0.897- 115 0.96
 184  0.977  0.521  0.231- 112 0.94
 185  0.632  0.442  0.908- 116 0.99
 186  0.998  0.019  0.808- 117 0.98
 187  0.038  0.064  0.757- 117 0.97
 188  0.028  0.597  0.975- 105 1.00
 189  0.909  0.872  0.157- 118 0.97
 190  0.757  0.834  0.169- 118 1.03
 191  0.417  0.581  0.215- 119 0.98
 192  0.292  0.446  0.861- 120 0.99
 193  0.781  0.083  0.847- 121 1.03
 194  0.331  0.241  0.799- 122 0.98
 195  0.910  0.105  0.881- 121 0.99
 196  0.168  0.372  0.847- 120 1.01
 197  0.317  0.249  0.747- 122 0.95
 198  0.431  0.040  0.925- 123 0.95
 199  0.334  0.015  0.890- 123 0.93
 200  0.084  0.068  0.102- 124 0.97
 201  0.478  0.689  0.779- 125 1.00
 202  0.663  0.513  0.989- 126 0.99
 203  0.074  0.236  0.091- 124 0.94
 204  0.532  0.423  0.978- 126 0.96
 205  0.101  0.966  0.257- 127 0.94
 206  0.104  0.881  0.211- 127 1.01
 207  0.952  0.444  0.094- 128 0.99
 208  0.970  0.701  0.902- 129 0.91
 209  0.040  0.494  0.054- 128 0.95
 210  0.966  0.830  0.868- 129 0.97
 211  0.038  0.835  0.957- 141 0.94
 212  0.160  0.668  0.217- 130 1.02
 213  0.265  0.753  0.246- 130 0.96
 214  0.757  0.856  0.771- 131 0.96
 215  0.182  0.473  0.111- 132 1.03
 216  0.624  0.044  0.088- 133 0.99
 217  0.286  0.594  0.126- 132 0.97
 218  0.897  0.785  0.754- 131 1.00
 219  0.487  0.096  0.070- 133 0.95
 220  0.107  0.266  0.902- 134 0.96
 221  0.009  0.217  0.939- 134 0.95
 222  0.340  0.762  0.763- 125 0.96
 223  0.677  0.258  0.995- 136 0.97
 224  0.297  0.358  0.924- 137 0.97
 225  0.674  0.094  0.010- 136 0.95
 226  0.492  0.113  0.234- 135 1.03
 227  0.224  0.445  0.964- 137 1.03
 228  0.860  0.177  0.170- 138 0.95
 229  0.944  0.109  0.207- 138 1.03
 230  0.039  0.171  0.015-  99 0.97
 231  0.871  0.953  0.043- 139 0.98
 232  0.481  0.421  0.763- 140 1.01
 233  0.819  0.906  0.092- 139 1.03
 234  0.617  0.487  0.769- 140 0.99
 235  0.893  0.835  0.959- 141 0.94
 236  0.350  0.207  0.241- 135 0.99
 237  0.498  0.941  0.751- 142 1.02
 238  0.556  0.087  0.769- 142 0.96
 239  0.709  0.321  0.125- 143 0.99
 240  0.770  0.246  0.082- 143 0.95
 241  0.053  0.777  0.124- 144 0.94
 242  0.173  0.882  0.128- 144 1.02
 243  0.348  0.677  0.845- 145 1.03
 244  0.439  0.591  0.879- 145 0.97
 245  0.558  0.026  0.171- 146 0.96
 246  0.595  0.885  0.206- 146 1.03
 
  LATTYP: Found a simple orthorhombic cell.
 ALAT       =     8.7818242399
 B/A-ratio  =     1.1547005384
 C/A-ratio  =     3.4310783653
  
  Lattice vectors:
  
 A1 = (   0.0000000000,  -8.7818242399,   0.0000000000)
 A2 = (  10.1403771778,   0.0000000000,   0.0000000000)
 A3 = (   0.0000000000,   0.0000000000,  30.1311271579)


Analysis of symmetry for initial positions (statically):
=====================================================================
 Subroutine PRICEL returns:
 Original cell was already a primitive cell.
 

 Routine SETGRP: Setting up the symmetry group for a 
 simple orthorhombic supercell.


 Subroutine GETGRP returns: Found  1 space group operations
 (whereof  1 operations were pure point group operations)
 out of a pool of  8 trial point group operations.


The static configuration has the point symmetry C_1 .


Analysis of symmetry for dynamics (positions and initial velocities):
=====================================================================
 Subroutine PRICEL returns:
 Original cell was already a primitive cell.
 

 Routine SETGRP: Setting up the symmetry group for a 
 simple orthorhombic supercell.


 Subroutine GETGRP returns: Found  1 space group operations
 (whereof  1 operations were pure point group operations)
 out of a pool of  8 trial point group operations.


The dynamic configuration has the point symmetry C_1 .


 Subroutine INISYM returns: Found  1 space group operations
 (whereof  1 operations are pure point group operations),
 and found     1 'primitive' translations


----------------------------------------------------------------------------------------

                                     Primitive cell                                     

  volume of cell :    2683.2073

  direct lattice vectors                    reciprocal lattice vectors
    10.140377178  0.000000000  0.000000000     0.098615661  0.000000000  0.000000000
     0.000000000  8.781824240  0.000000000     0.000000000  0.113871557  0.000000000
     0.000000000  0.000000000 30.131127158     0.000000000  0.000000000  0.033188271

  length of vectors
    10.140377178  8.781824240 30.131127158     0.098615661  0.113871557  0.033188271

  position of ions in fractional coordinates (direct lattice)
     0.680230122  0.120937287  0.329110157
     0.922206328  0.122700019  0.325801951
     0.170423641  0.116703543  0.327684721
     0.422487243  0.117822900  0.321991937
     0.797653762  0.363844677  0.324627418
     0.046943323  0.365444572  0.331375257
     0.298515523  0.368356268  0.330498091
     0.548326744  0.371220137  0.332984556
     0.938961129  0.612431979  0.332938092
     0.174880083  0.627898014  0.330693570
     0.428755255  0.594266050  0.330310245
     0.685768377  0.630351946  0.329736420
     0.048225622  0.869467413  0.326439165
     0.302643575  0.862546299  0.324554735
     0.552395626  0.868936771  0.329699249
     0.810081307  0.862088536  0.329159276
     0.549650166  0.190070987  0.395395099
     0.805926629  0.206041473  0.399560227
     0.059451142  0.199753485  0.399503807
     0.303235269  0.207497890  0.396420616
     0.687649964  0.452881986  0.400642164
     0.924564228  0.460214175  0.397854350
     0.176179837  0.448977330  0.396672847
     0.433146610  0.463427631  0.397074425
     0.814606780  0.704516491  0.397004730
     0.059319687  0.702186679  0.396151791
     0.317611460  0.711133567  0.398156363
     0.569665201  0.700374983  0.395929430
     0.935871500  0.958972734  0.395803315
     0.197539989  0.952598204  0.397250323
     0.436417692  0.958710829  0.390274149
     0.684315768  0.944509907  0.396822194
     0.562499787  0.041666628  0.465651349
     0.812500349  0.041666628  0.465651349
     0.062500042  0.041666628  0.465651349
     0.312500210  0.041666628  0.465651349
     0.687500068  0.291667190  0.465651349
     0.937499645  0.291667190  0.465651349
     0.187499929  0.291667190  0.465651349
     0.437500492  0.291667190  0.465651349
     0.812500349  0.541666500  0.465651349
     0.062500042  0.541666500  0.465651349
     0.312500210  0.541666500  0.465651349
     0.562499787  0.541666500  0.465651349
     0.937499645  0.791666949  0.465651349
     0.187499929  0.791666949  0.465651349
     0.437500492  0.791666949  0.465651349
     0.687500068  0.791666949  0.465651349
     0.687500068  0.125000224  0.534347750
     0.937499645  0.125000224  0.534347750
     0.187499929  0.125000224  0.534347750
     0.437500492  0.125000224  0.534347750
     0.812500349  0.374999534  0.534347750
     0.062500042  0.374999534  0.534347750
     0.312500210  0.374999534  0.534347750
     0.562499787  0.374999534  0.534347750
     0.937499645  0.624999983  0.534347750
     0.187499929  0.624999983  0.534347750
     0.437500492  0.624999983  0.534347750
     0.687500068  0.624999983  0.534347750
     0.062500042  0.875000432  0.534347750
     0.312500210  0.875000432  0.534347750
     0.562499787  0.875000432  0.534347750
     0.812500349  0.875000432  0.534347750
     0.569319060  0.210430083  0.599990830
     0.821232766  0.218297468  0.599960961
     0.054105088  0.205476670  0.603611671
     0.306045815  0.218637944  0.601169014
     0.678183847  0.460029703  0.605198070
     0.937559800  0.456440472  0.600322713
     0.185263326  0.461067073  0.603077339
     0.436938382  0.461856203  0.604969071
     0.805531181  0.713364311  0.603595076
     0.071460655  0.714841225  0.603352802
     0.311294141  0.707449823  0.600491973
     0.563582587  0.705006139  0.604308624
     0.942653299  0.948600174  0.605068636
     0.187639963  0.959261968  0.604560855
     0.424649885  0.960867557  0.601786316
     0.701075500  0.968441154  0.604985665
     0.563789680  0.052709208  0.674478585
     0.814339531  0.064661394  0.667801105
     0.063989434  0.052493991  0.670293544
     0.305021198  0.047669253  0.668093161
     0.676633608  0.298471016  0.668325479
     0.935780774  0.309477840  0.668753608
     0.181246710  0.306859933  0.667601975
     0.420545501  0.277763473  0.667399527
     0.809820962  0.556856966  0.672248333
     0.049359308  0.560876632  0.668819985
     0.305393966  0.555862867  0.670638702
     0.566979896  0.560325493  0.673380053
     0.932766093  0.808945819  0.670532499
     0.183272276  0.798555039  0.672822490
     0.415744891  0.796795724  0.663735541
     0.676730252  0.794358872  0.666991311
     0.223936443  0.836269299  0.941893075
     0.452257339  0.427216475  0.067581275
     0.973141317  0.214286912  0.995677986
     0.066138368  0.512415174  0.819634124
     0.544307170  0.941966017  0.997108400
     0.799086647  0.488119539  0.778062496
     0.337623536  0.841703250  0.136412089
     0.762785236  0.365834013  0.250881421
     0.081379715  0.508643748  0.986103170
     0.709232001  0.750900931  0.215660037
     0.527173685  0.294334062  0.162598630
     0.136569871  0.753513145  0.751319387
     0.626268618  0.153498859  0.835922927
     0.205050558  0.284298562  0.205445351
     0.603821721  0.745929299  0.844107154
     0.021919796  0.555615766  0.205302642
     0.357117880  0.178180519  0.016979186
     0.607706192  0.674944048  0.043765372
     0.747702957  0.838308738  0.918906878
     0.614765101  0.431964919  0.875748851
     0.063194395  0.011102579  0.784298572
     0.818886700  0.887255289  0.146997488
     0.504882601  0.544493931  0.223627545
     0.250087344  0.344512702  0.864043348
     0.863848538  0.033580950  0.860770985
     0.379619015  0.247507800  0.770551990
     0.416074267  0.060324938  0.894473674
     0.114395153  0.145716877  0.081820371
     0.414912574  0.775067892  0.781570496
     0.623794351  0.432142559  0.970371930
     0.051152732  0.950340131  0.231061386
     0.043117232  0.458098442  0.083278995
     0.996797151  0.727665440  0.874647001
     0.234320673  0.746522570  0.215620875
     0.821117386  0.776949050  0.774561133
     0.269580702  0.485322854  0.128322116
     0.529022728  0.053641930  0.094741228
     0.035939689  0.198540753  0.909375207
     0.435679060  0.179915921  0.255134830
     0.720754255  0.185890762  0.014672833
     0.304045890  0.379975721  0.955291179
     0.919095990  0.210419834  0.192617421
     0.792149035  0.954128638  0.061811494
     0.530750475  0.519042499  0.756841916
     0.967112941  0.787249871  0.971948372
     0.579187529  0.007730546  0.748584674
     0.780669186  0.327365923  0.102568018
     0.072733882  0.881023098  0.128577998
     0.346195209  0.610449475  0.872576053
     0.527431071  0.966295814  0.196298332
     0.268085689  0.839439483  0.971039014
     0.254471797  0.740591000  0.926550137
     0.414737039  0.353099756  0.045824705
     0.383773693  0.448250829  0.089288396
     0.674014376  0.805963523  0.851810152
     0.886886143  0.189458358  0.005886698
     0.980924065  0.479728344  0.808526009
     0.045404919  0.603938300  0.839474072
     0.566663340  0.841736272  0.011472920
     0.453979169  0.960918799  0.005498135
     0.679221283  0.332302255  0.238697675
     0.839410591  0.464308996  0.748276023
     0.614983042  0.261036880  0.849344263
     0.402737485  0.918574522  0.126515679
     0.520807058  0.390736583  0.181839198
     0.827122093  0.314759203  0.232215674
     0.018666170  0.424097534  0.987480483
     0.664624193  0.649187440  0.215458584
     0.775903091  0.757623908  0.237489954
     0.651912634  0.521556783  0.858092691
     0.515331916  0.316083529  0.131359839
     0.504690300  0.548568255  0.255188595
     0.130319610  0.675546428  0.772934908
     0.095198333  0.837470644  0.769294155
     0.794403389  0.598168428  0.781251889
     0.568350654  0.088970808  0.851514776
     0.229561481  0.339005874  0.178402885
     0.141431623  0.210413002  0.196970394
     0.341975445  0.833103670  0.167707964
     0.557942757  0.789313224  0.819571066
     0.061056013  0.455808485  0.197051706
     0.281308077  0.165675145  0.036872832
     0.316424127  0.238814846  0.992475318
     0.554909339  0.592281268  0.058640023
     0.664114350  0.708648890  0.067678517
     0.664131115  0.887595765  0.928398724
     0.793396524  0.897665426  0.896849954
     0.977452794  0.521450883  0.230616331
     0.631600767  0.441587066  0.908087502
     0.998030389  0.019297016  0.808306967
     0.038011702  0.063503776  0.757276682
     0.028336421  0.596939754  0.975137765
     0.909126933  0.872040910  0.156877968
     0.757085251  0.833658224  0.169044124
     0.416796134  0.580973823  0.214880113
     0.291870800  0.445824227  0.860508798
     0.780548875  0.082880502  0.847104055
     0.330632672  0.240979544  0.798662455
     0.910430632  0.105227453  0.880707179
     0.168404978  0.372252952  0.846606231
     0.317396478  0.248972188  0.746898710
     0.431168380  0.040299827  0.925159549
     0.333983632  0.014585325  0.890318502
     0.083913348  0.067697893  0.102363910
     0.478369780  0.688673541  0.778766087
     0.663194266  0.512797783  0.989040332
     0.073782068  0.235705013  0.091423397
     0.531970350  0.423023725  0.977746363
     0.101292090  0.966221797  0.256964167
     0.104386650  0.880947943  0.211360497
     0.951781165  0.443941930  0.093737947
     0.970432345  0.700616390  0.902399033
     0.040235781  0.494487237  0.053733138
     0.965691890  0.829688662  0.868002709
     0.037547321  0.834899424  0.957189548
     0.160081817  0.668412375  0.217493357
     0.265012825  0.752867493  0.245696418
     0.756733193  0.856102308  0.770505527
     0.182244700  0.472914270  0.111100723
     0.623974818  0.044120446  0.088036866
     0.286393686  0.594340066  0.126425407
     0.896984386  0.785304945  0.753503176
     0.487211660  0.095951476  0.069548344
     0.107244532  0.266375179  0.901804963
     0.009370717  0.217481009  0.939254607
     0.339603739  0.761593470  0.762689689
     0.677357447  0.257961209  0.995040771
     0.297098416  0.358469939  0.923772279
     0.674370379  0.094004614  0.009539072
     0.491543846  0.113024467  0.234391165
     0.223972931  0.445287892  0.963827203
     0.859823047  0.176549878  0.170213347
     0.944228191  0.108867130  0.207125673
     0.039325559  0.171036217  0.015356545
     0.871281200  0.953172117  0.043274186
     0.481484063  0.421116376  0.762663138
     0.818762444  0.906151135  0.091644099
     0.617016497  0.486519644  0.768952316
     0.893333635  0.834801495  0.958882150
     0.350493866  0.207180188  0.240911333
     0.497966684  0.940513016  0.750798332
     0.555659804  0.087439122  0.768650302
     0.708946016  0.321022139  0.124958153
     0.769807657  0.246201694  0.081875795
     0.053254627  0.777347600  0.124414197
     0.172981731  0.882144733  0.128364929
     0.348181329  0.677442390  0.844697905
     0.438807149  0.591327025  0.878543304
     0.557671564  0.025508026  0.171411112
     0.595235255  0.885413985  0.205573126

  ion indices of the primitive-cell ions
   primitive index   ion index
                 1           1
                 2           2
                 3           3
                 4           4
                 5           5
                 6           6
                 7           7
                 8           8
                 9           9
                10          10
                11          11
                12          12
                13          13
                14          14
                15          15
                16          16
                17          17
                18          18
                19          19
                20          20
                21          21
                22          22
                23          23
                24          24
                25          25
                26          26
                27          27
                28          28
                29          29
                30          30
                31          31
                32          32
                33          33
                34          34
                35          35
                36          36
                37          37
                38          38
                39          39
                40          40
                41          41
                42          42
                43          43
                44          44
                45          45
                46          46
                47          47
                48          48
                49          49
                50          50
                51          51
                52          52
                53          53
                54          54
                55          55
                56          56
                57          57
                58          58
                59          59
                60          60
                61          61
                62          62
                63          63
                64          64
                65          65
                66          66
                67          67
                68          68
                69          69
                70          70
                71          71
                72          72
                73          73
                74          74
                75          75
                76          76
                77          77
                78          78
                79          79
                80          80
                81          81
                82          82
                83          83
                84          84
                85          85
                86          86
                87          87
                88          88
                89          89
                90          90
                91          91
                92          92
                93          93
                94          94
                95          95
                96          96
                97          97
                98          98
                99          99
               100         100
               101         101
               102         102
               103         103
               104         104
               105         105
               106         106
               107         107
               108         108
               109         109
               110         110
               111         111
               112         112
               113         113
               114         114
               115         115
               116         116
               117         117
               118         118
               119         119
               120         120
               121         121
               122         122
               123         123
               124         124
               125         125
               126         126
               127         127
               128         128
               129         129
               130         130
               131         131
               132         132
               133         133
               134         134
               135         135
               136         136
               137         137
               138         138
               139         139
               140         140
               141         141
               142         142
               143         143
               144         144
               145         145
               146         146
               147         147
               148         148
               149         149
               150         150
               151         151
               152         152
               153         153
               154         154
               155         155
               156         156
               157         157
               158         158
               159         159
               160         160
               161         161
               162         162
               163         163
               164         164
               165         165
               166         166
               167         167
               168         168
               169         169
               170         170
               171         171
               172         172
               173         173
               174         174
               175         175
               176         176
               177         177
               178         178
               179         179
               180         180
               181         181
               182         182
               183         183
               184         184
               185         185
               186         186
               187         187
               188         188
               189         189
               190         190
               191         191
               192         192
               193         193
               194         194
               195         195
               196         196
               197         197
               198         198
               199         199
               200         200
               201         201
               202         202
               203         203
               204         204
               205         205
               206         206
               207         207
               208         208
               209         209
               210         210
               211         211
               212         212
               213         213
               214         214
               215         215
               216         216
               217         217
               218         218
               219         219
               220         220
               221         221
               222         222
               223         223
               224         224
               225         225
               226         226
               227         227
               228         228
               229         229
               230         230
               231         231
               232         232
               233         233
               234         234
               235         235
               236         236
               237         237
               238         238
               239         239
               240         240
               241         241
               242         242
               243         243
               244         244
               245         245
               246         246

----------------------------------------------------------------------------------------

 
 
 KPOINTS: KPOINTS created by Atomic Simulation Env

Automatic generation of k-mesh.
 Grid dimensions read from file:
 generate k-points for:    2    2    1

 Generating k-lattice:

  Cartesian coordinates                     Fractional coordinates (reciprocal lattice)
     0.049307831  0.000000000  0.000000000     0.500000000  0.000000000  0.000000000
     0.000000000  0.056935779  0.000000000     0.000000000  0.500000000  0.000000000
     0.000000000  0.000000000  0.033188271     0.000000000  0.000000000  1.000000000

  Length of vectors
     0.049307831  0.056935779  0.033188271

  Shift w.r.t. Gamma in fractional coordinates (k-lattice)
     0.500000000  0.500000000  0.000000000

 
 Subroutine IBZKPT returns following result:
 ===========================================
 
 Found      2 irreducible k-points:
 
 Following reciprocal coordinates:
            Coordinates               Weight
  0.250000  0.250000  0.000000      2.000000
 -0.250000  0.250000  0.000000      2.000000
 
 Following cartesian coordinates:
            Coordinates               Weight
  0.024654  0.028468  0.000000      2.000000
 -0.024654  0.028468  0.000000      2.000000
 


--------------------------------------------------------------------------------------------------------




 Dimension of arrays:
   k-points           NKPTS =      2   k-points in BZ     NKDIM =      2   number of bands    NBANDS=    874
   number of dos      NEDOS =    301   number of ions     NIONS =    246
   non local maximal  LDIM  =      6   non local SUM 2l+1 LMDIM =     18
   total plane-waves  NPLWV = ******
   max r-space proj   IRMAX =   8746   max aug-charges    IRDMAX=  24571
   dimension x,y,z NGX =    96 NGY =   84 NGZ =  280
   dimension x,y,z NGXF=   192 NGYF=  168 NGZF=  560
   support grid    NGXF=   192 NGYF=  168 NGZF=  560
   ions per type =              96  50 100
   NGX,Y,Z   is equivalent  to a cutoff of  15.74, 15.90, 15.45 a.u.
   NGXF,Y,Z  is equivalent  to a cutoff of  31.48, 31.80, 30.90 a.u.

 SYSTEM =  unknown system                          
 POSCAR =  Cu O  H                                 

 Startparameter for this run:
   NWRITE =      2    write-flag & timer
   PREC   = accura    normal or accurate (medium, high low for compatibility)
   ISTART =      0    job   : 0-new  1-cont  2-samecut
   ICHARG =      2    charge: 1-file 2-atom 10-const
   ISPIN  =      1    spin polarized calculation?
   LNONCOLLINEAR =      F non collinear calculations
   LSORBIT =      F    spin-orbit coupling
   INIWAV =      1    electr: 0-lowe 1-rand  2-diag
   LASPH  =      T    aspherical Exc in radial PAW
 Electronic Relaxation 1
   ENCUT  =  800.0 eV  58.80 Ry    7.67 a.u.  23.39 20.25 69.49*2*pi/ulx,y,z
   ENINI  =  800.0     initial cutoff
   ENAUG  = 1000.0 eV  augmentation charge cutoff
   NELM   =    160;   NELMIN=  2; NELMDL= -5     # of ELM steps 
   EDIFF  = 0.1E-06   stopping-criterion for ELM
   LREAL  =      T    real-space projection
   NLSPLINE    = F    spline interpolate recip. space projectors
   LCOMPAT=      F    compatible to vasp.4.4
   GGA_COMPAT  = T    GGA compatible to vasp.4.4-vasp.4.6
   LMAXPAW     = -100 max onsite density
   LMAXMIX     =    2 max onsite mixed and CHGCAR
   VOSKOWN=      0    Vosko Wilk Nusair interpolation
   ROPT   =   -0.00025  -0.00025  -0.00025
 Ionic relaxation
   EDIFFG = 0.1E-05   stopping-criterion for IOM
   NSW    =      0    number of steps for IOM
   NBLOCK =      1;   KBLOCK =      1    inner block; outer block 
   IBRION =     -1    ionic relax: 0-MD 1-quasi-New 2-CG
   NFREE  =      0    steps in history (QN), initial steepest desc. (CG)
   ISIF   =      2    stress and relaxation
   IWAVPR =     10    prediction:  0-non 1-charg 2-wave 3-comb
   ISYM   =      2    0-nonsym 1-usesym 2-fastsym
   LCORR  =      T    Harris-Foulkes like correction to forces

   POTIM  = 0.5000    time-step for ionic-motion
   TEIN   =    0.0    initial temperature
   TEBEG  =    0.0;   TEEND  =   0.0 temperature during run
   SMASS  =  -3.00    Nose mass-parameter (am)
   estimated Nose-frequenzy (Omega)   =  0.10E-29 period in steps = 0.13E+47 mass=  -0.235E-26a.u.
   SCALEE = 1.0000    scale energy and forces
   NPACO  =    256;   APACO  = 10.0  distance and # of slots for P.C.
   PSTRESS=    0.0 pullay stress

  Mass of Ions in am
   POMASS =  63.55 16.00  1.00
  Ionic Valenz
   ZVAL   =  11.00  6.00  1.00
  Atomic Wigner-Seitz radii
   RWIGS  =  -1.00 -1.00 -1.00
  virtual crystal weights 
   VCA    =   1.00  1.00  1.00
   NELECT =    1456.0000    total number of electrons
   NUPDOWN=      -1.0000    fix difference up-down

 DOS related values:
   EMIN   =  10.00;   EMAX   =-10.00  energy-range for DOS
   EFERMI =   0.00;   METHOD = LEGACY      
   ISMEAR =     0;   SIGMA  =   0.10  broadening in eV -4-tet -1-fermi 0-gaus

 Electronic relaxation 2 (details)
   IALGO  =     68    algorithm
   LDIAG  =      T    sub-space diagonalisation (order eigenvalues)
   LSUBROT=      F    optimize rotation matrix (better conditioning)
   TURBO    =      0    0=normal 1=particle mesh
   IRESTART =      0    0=no restart 2=restart with 2 vectors
   NREBOOT  =      0    no. of reboots
   NMIN     =      0    reboot dimension
   EREF     =   0.00    reference energy to select bands
   IMIX   =      4    mixing-type and parameters
     AMIX     =   0.40;   BMIX     =  1.00
     AMIX_MAG =   1.60;   BMIX_MAG =  1.00
     AMIN     =   0.10
     WC   =   100.;   INIMIX=   1;  MIXPRE=   1;  MAXMIX= -45

 Intra band minimization:
   WEIMIN = 0.0000     energy-eigenvalue tresh-hold
   EBREAK =  0.29E-10  absolut break condition
   DEPER  =   0.30     relativ break condition  

   TIME   =   0.40     timestep for ELM

  volume/ion in A,a.u.               =      10.91        73.61
  Fermi-wavevector in a.u.,A,eV,Ry     =   1.335295  2.523342 24.259360  1.783013
  Thomas-Fermi vector in A             =   2.464010
 
 Write flags
   LWAVE        =      T    write WAVECAR
   LDOWNSAMPLE  =      F    k-point downsampling of WAVECAR
   LCHARG       =      T    write CHGCAR
   LVTOT        =      F    write LOCPOT, total local potential
   LVHAR        =      T    write LOCPOT, Hartree potential only
   WRT_POTENTIAL=  hartree ionic  ! write potential to hdf5 file
   LELF         =      F    write electronic localiz. function (ELF)
   LORBIT       =      0    0 simple, 1 ext, 2 COOP (PROOUT), +10 PAW based schemes


 Dipole corrections
   LMONO      =      F    monopole corrections only (constant potential shift)
   LDIPOL     =      F    correct potential (dipole corrections)
   IDIPOL     =      0    1-x, 2-y, 3-z, 4-all directions 
   EPSILON    =  1.0000000 bulk dielectric constant
   LVACPOTAV  =      F  vacuum potentials using an averaging scheme for the charge density
   VACPOTFLAT =  0.1000000 required flatness to determine vacuum potential
 Exchange correlation treatment:
   METAGGA = R2SCAN    functional components
   XC_C    = 1    coefficients multiplying the functional components
   LIBXC   =     F    Libxc                    
   VOSKOWN =     0    Vosko Wilk Nusair interpolation
   LHFCALC =     F    Hartree Fock is set to
   LHFONE  =     F    Hartree Fock one center treatment
   AEXX    =    0.0000 exact exchange contribution

 Parameters of functionals:
   R2SCAN:
     No parameter
 
 Accuracy and mixing parameters for tau-dependent meta-GGA functionals:
   LMAXTAU = 6
   LMIXTAU = T
 
 Van der Waals corrections
   IVDW    =     0    specifies the selected vdW correction

 Linear response parameters
   LEPSILON=     F    determine dielectric tensor
   LRPA    =     F    only Hartree local field effects (RPA)
   LNABLA  =     F    use nabla operator in PAW spheres
   LVEL    =     F    velocity operator in full k-point grid
   CSHIFT  =0.1000    complex shift for real part using Kramers Kronig
   OMEGAMAX=  -1.0    maximum frequency
   DEG_THRESHOLD= 0.2000000E-02 threshold for treating states as degnerate
   RTIME   =   -0.100 relaxation time in fs
  (WPLASMAI=    0.000 imaginary part of plasma frequency in eV, 0.658/RTIME)
   DFIELD  = 0.0000000 0.0000000 0.0000000 field for delta impulse in time
 
  Optional k-point grid parameters
   LKPOINTS_OPT  =     F    use optional k-point grid
   KPOINTS_OPT_MODE=     1    mode for optional k-point grid
 
 Orbital magnetization related:
   ORBITALMAG=     F  switch on orbital magnetization
   LCHIMAG   =     F  perturbation theory with respect to B field
   DQ        =  0.001000  dq finite difference perturbation B field
   LLRAUG    =     F  two centre corrections for induced B field
   LBONE     =     F  B-component reconstruction in AE one-centre
   LVGVCALC  =     T  calculate vGv susceptibility
   LVGVAPPL  =     F  apply vGv susceptibility instead of pGv for G=0

 Random number generation:
   RANDOM_GENERATOR = DEFAULT
   PCG_SEED         = not used


--------------------------------------------------------------------------------------------------------


 Static calculation
 charge density and potential will be updated during run
 non-spin polarized calculation
 RMM-DIIS sequential band-by-band and
  variant of blocked Davidson during initial phase
 perform sub-space diagonalisation
    before iterative eigenvector-optimisation
 modified Broyden-mixing scheme, WC =      100.0
 initial mixing is a Kerker type mixing with AMIX =  0.4000 and BMIX =      1.0000
 Hartree-type preconditioning will be used
 using additional bands           146
 real space projection scheme for non local part
 use partial core corrections
 calculate Harris-corrections to forces 
   (improved forces if not selfconsistent)
 use gradient corrections 
 use of overlap-Matrix (Vanderbilt PP)
 Gauss-broadening in eV      SIGMA  =   0.10


--------------------------------------------------------------------------------------------------------


  energy-cutoff  :      800.00
  volume of cell :     2683.21
      direct lattice vectors                 reciprocal lattice vectors
    10.140377178  0.000000000  0.000000000     0.098615661  0.000000000  0.000000000
     0.000000000  8.781824240  0.000000000     0.000000000  0.113871557  0.000000000
     0.000000000  0.000000000 30.131127158     0.000000000  0.000000000  0.033188271

  length of vectors
    10.140377178  8.781824240 30.131127158     0.098615661  0.113871557  0.033188271


 
 k-points in units of 2pi/SCALE and weight: KPOINTS created by Atomic Simulation Env
   0.02465392  0.02846789  0.00000000       0.500
  -0.02465392  0.02846789  0.00000000       0.500
 
 k-points in reciprocal lattice and weights: KPOINTS created by Atomic Simulation Env
   0.25000000  0.25000000  0.00000000       0.500
  -0.25000000  0.25000000  0.00000000       0.500
 
 position of ions in fractional coordinates (direct lattice) 
   0.68023012  0.12093729  0.32911016
   0.92220633  0.12270002  0.32580195
   0.17042364  0.11670354  0.32768472
   0.42248724  0.11782290  0.32199194
   0.79765376  0.36384468  0.32462742
   0.04694332  0.36544457  0.33137526
   0.29851552  0.36835627  0.33049809
   0.54832674  0.37122014  0.33298456
   0.93896113  0.61243198  0.33293809
   0.17488008  0.62789801  0.33069357
   0.42875525  0.59426605  0.33031025
   0.68576838  0.63035195  0.32973642
   0.04822562  0.86946741  0.32643917
   0.30264357  0.86254630  0.32455474
   0.55239563  0.86893677  0.32969925
   0.81008131  0.86208854  0.32915928
   0.54965017  0.19007099  0.39539510
   0.80592663  0.20604147  0.39956023
   0.05945114  0.19975349  0.39950381
   0.30323527  0.20749789  0.39642062
   0.68764996  0.45288199  0.40064216
   0.92456423  0.46021418  0.39785435
   0.17617984  0.44897733  0.39667285
   0.43314661  0.46342763  0.39707443
   0.81460678  0.70451649  0.39700473
   0.05931969  0.70218668  0.39615179
   0.31761146  0.71113357  0.39815636
   0.56966520  0.70037498  0.39592943
   0.93587150  0.95897273  0.39580331
   0.19753999  0.95259820  0.39725032
   0.43641769  0.95871083  0.39027415
   0.68431577  0.94450991  0.39682219
   0.56249979  0.04166663  0.46565135
   0.81250035  0.04166663  0.46565135
   0.06250004  0.04166663  0.46565135
   0.31250021  0.04166663  0.46565135
   0.68750007  0.29166719  0.46565135
   0.93749964  0.29166719  0.46565135
   0.18749993  0.29166719  0.46565135
   0.43750049  0.29166719  0.46565135
   0.81250035  0.54166650  0.46565135
   0.06250004  0.54166650  0.46565135
   0.31250021  0.54166650  0.46565135
   0.56249979  0.54166650  0.46565135
   0.93749964  0.79166695  0.46565135
   0.18749993  0.79166695  0.46565135
   0.43750049  0.79166695  0.46565135
   0.68750007  0.79166695  0.46565135
   0.68750007  0.12500022  0.53434775
   0.93749964  0.12500022  0.53434775
   0.18749993  0.12500022  0.53434775
   0.43750049  0.12500022  0.53434775
   0.81250035  0.37499953  0.53434775
   0.06250004  0.37499953  0.53434775
   0.31250021  0.37499953  0.53434775
   0.56249979  0.37499953  0.53434775
   0.93749964  0.62499998  0.53434775
   0.18749993  0.62499998  0.53434775
   0.43750049  0.62499998  0.53434775
   0.68750007  0.62499998  0.53434775
   0.06250004  0.87500043  0.53434775
   0.31250021  0.87500043  0.53434775
   0.56249979  0.87500043  0.53434775
   0.81250035  0.87500043  0.53434775
   0.56931906  0.21043008  0.59999083
   0.82123277  0.21829747  0.59996096
   0.05410509  0.20547667  0.60361167
   0.30604582  0.21863794  0.60116901
   0.67818385  0.46002970  0.60519807
   0.93755980  0.45644047  0.60032271
   0.18526333  0.46106707  0.60307734
   0.43693838  0.46185620  0.60496907
   0.80553118  0.71336431  0.60359508
   0.07146066  0.71484123  0.60335280
   0.31129414  0.70744982  0.60049197
   0.56358259  0.70500614  0.60430862
   0.94265330  0.94860017  0.60506864
   0.18763996  0.95926197  0.60456086
   0.42464988  0.96086756  0.60178632
   0.70107550  0.96844115  0.60498566
   0.56378968  0.05270921  0.67447858
   0.81433953  0.06466139  0.66780110
   0.06398943  0.05249399  0.67029354
   0.30502120  0.04766925  0.66809316
   0.67663361  0.29847102  0.66832548
   0.93578077  0.30947784  0.66875361
   0.18124671  0.30685993  0.66760198
   0.42054550  0.27776347  0.66739953
   0.80982096  0.55685697  0.67224833
   0.04935931  0.56087663  0.66881998
   0.30539397  0.55586287  0.67063870
   0.56697990  0.56032549  0.67338005
   0.93276609  0.80894582  0.67053250
   0.18327228  0.79855504  0.67282249
   0.41574489  0.79679572  0.66373554
   0.67673025  0.79435887  0.66699131
   0.22393644  0.83626930  0.94189307
   0.45225734  0.42721648  0.06758128
   0.97314132  0.21428691  0.99567799
   0.06613837  0.51241517  0.81963412
   0.54430717  0.94196602  0.99710840
   0.79908665  0.48811954  0.77806250
   0.33762354  0.84170325  0.13641209
   0.76278524  0.36583401  0.25088142
   0.08137971  0.50864375  0.98610317
   0.70923200  0.75090093  0.21566004
   0.52717368  0.29433406  0.16259863
   0.13656987  0.75351314  0.75131939
   0.62626862  0.15349886  0.83592293
   0.20505056  0.28429856  0.20544535
   0.60382172  0.74592930  0.84410715
   0.02191980  0.55561577  0.20530264
   0.35711788  0.17818052  0.01697919
   0.60770619  0.67494405  0.04376537
   0.74770296  0.83830874  0.91890688
   0.61476510  0.43196492  0.87574885
   0.06319439  0.01110258  0.78429857
   0.81888670  0.88725529  0.14699749
   0.50488260  0.54449393  0.22362755
   0.25008734  0.34451270  0.86404335
   0.86384854  0.03358095  0.86077098
   0.37961902  0.24750780  0.77055199
   0.41607427  0.06032494  0.89447367
   0.11439515  0.14571688  0.08182037
   0.41491257  0.77506789  0.78157050
   0.62379435  0.43214256  0.97037193
   0.05115273  0.95034013  0.23106139
   0.04311723  0.45809844  0.08327900
   0.99679715  0.72766544  0.87464700
   0.23432067  0.74652257  0.21562087
   0.82111739  0.77694905  0.77456113
   0.26958070  0.48532285  0.12832212
   0.52902273  0.05364193  0.09474123
   0.03593969  0.19854075  0.90937521
   0.43567906  0.17991592  0.25513483
   0.72075426  0.18589076  0.01467283
   0.30404589  0.37997572  0.95529118
   0.91909599  0.21041983  0.19261742
   0.79214904  0.95412864  0.06181149
   0.53075047  0.51904250  0.75684192
   0.96711294  0.78724987  0.97194837
   0.57918753  0.00773055  0.74858467
   0.78066919  0.32736592  0.10256802
   0.07273388  0.88102310  0.12857800
   0.34619521  0.61044948  0.87257605
   0.52743107  0.96629581  0.19629833
   0.26808569  0.83943948  0.97103901
   0.25447180  0.74059100  0.92655014
   0.41473704  0.35309976  0.04582470
   0.38377369  0.44825083  0.08928840
   0.67401438  0.80596352  0.85181015
   0.88688614  0.18945836  0.00588670
   0.98092406  0.47972834  0.80852601
   0.04540492  0.60393830  0.83947407
   0.56666334  0.84173627  0.01147292
   0.45397917  0.96091880  0.00549813
   0.67922128  0.33230226  0.23869768
   0.83941059  0.46430900  0.74827602
   0.61498304  0.26103688  0.84934426
   0.40273748  0.91857452  0.12651568
   0.52080706  0.39073658  0.18183920
   0.82712209  0.31475920  0.23221567
   0.01866617  0.42409753  0.98748048
   0.66462419  0.64918744  0.21545858
   0.77590309  0.75762391  0.23748995
   0.65191263  0.52155678  0.85809269
   0.51533192  0.31608353  0.13135984
   0.50469030  0.54856826  0.25518859
   0.13031961  0.67554643  0.77293491
   0.09519833  0.83747064  0.76929415
   0.79440339  0.59816843  0.78125189
   0.56835065  0.08897081  0.85151478
   0.22956148  0.33900587  0.17840288
   0.14143162  0.21041300  0.19697039
   0.34197545  0.83310367  0.16770796
   0.55794276  0.78931322  0.81957107
   0.06105601  0.45580848  0.19705171
   0.28130808  0.16567514  0.03687283
   0.31642413  0.23881485  0.99247532
   0.55490934  0.59228127  0.05864002
   0.66411435  0.70864889  0.06767852
   0.66413111  0.88759576  0.92839872
   0.79339652  0.89766543  0.89684995
   0.97745279  0.52145088  0.23061633
   0.63160077  0.44158707  0.90808750
   0.99803039  0.01929702  0.80830697
   0.03801170  0.06350378  0.75727668
   0.02833642  0.59693975  0.97513777
   0.90912693  0.87204091  0.15687797
   0.75708525  0.83365822  0.16904412
   0.41679613  0.58097382  0.21488011
   0.29187080  0.44582423  0.86050880
   0.78054888  0.08288050  0.84710406
   0.33063267  0.24097954  0.79866246
   0.91043063  0.10522745  0.88070718
   0.16840498  0.37225295  0.84660623
   0.31739648  0.24897219  0.74689871
   0.43116838  0.04029983  0.92515955
   0.33398363  0.01458532  0.89031850
   0.08391335  0.06769789  0.10236391
   0.47836978  0.68867354  0.77876609
   0.66319427  0.51279778  0.98904033
   0.07378207  0.23570501  0.09142340
   0.53197035  0.42302372  0.97774636
   0.10129209  0.96622180  0.25696417
   0.10438665  0.88094794  0.21136050
   0.95178116  0.44394193  0.09373795
   0.97043234  0.70061639  0.90239903
   0.04023578  0.49448724  0.05373314
   0.96569189  0.82968866  0.86800271
   0.03754732  0.83489942  0.95718955
   0.16008182  0.66841238  0.21749336
   0.26501282  0.75286749  0.24569642
   0.75673319  0.85610231  0.77050553
   0.18224470  0.47291427  0.11110072
   0.62397482  0.04412045  0.08803687
   0.28639369  0.59434007  0.12642541
   0.89698439  0.78530494  0.75350318
   0.48721166  0.09595148  0.06954834
   0.10724453  0.26637518  0.90180496
   0.00937072  0.21748101  0.93925461
   0.33960374  0.76159347  0.76268969
   0.67735745  0.25796121  0.99504077
   0.29709842  0.35846994  0.92377228
   0.67437038  0.09400461  0.00953907
   0.49154385  0.11302447  0.23439117
   0.22397293  0.44528789  0.96382720
   0.85982305  0.17654988  0.17021335
   0.94422819  0.10886713  0.20712567
   0.03932556  0.17103622  0.01535654
   0.87128120  0.95317212  0.04327419
   0.48148406  0.42111638  0.76266314
   0.81876244  0.90615113  0.09164410
   0.61701650  0.48651964  0.76895232
   0.89333363  0.83480149  0.95888215
   0.35049387  0.20718019  0.24091133
   0.49796668  0.94051302  0.75079833
   0.55565980  0.08743912  0.76865030
   0.70894602  0.32102214  0.12495815
   0.76980766  0.24620169  0.08187580
   0.05325463  0.77734760  0.12441420
   0.17298173  0.88214473  0.12836493
   0.34818133  0.67744239  0.84469791
   0.43880715  0.59132702  0.87854330
   0.55767156  0.02550803  0.17141111
   0.59523526  0.88541399  0.20557313
 
 position of ions in cartesian coordinates  (Angst):
   6.89779000  1.06205000  9.91646000
   9.35152000  1.07753000  9.81678000
   1.72816000  1.02487000  9.87351000
   4.28418000  1.03470000  9.70198000
   8.08851000  3.19522000  9.78139000
   0.47602300  3.20927000  9.98471000
   3.02706000  3.23484000  9.95828000
   5.56024000  3.25999000 10.03320000
   9.52142000  5.37827000 10.03180000
   1.77335000  5.51409000  9.96417000
   4.34774000  5.21874000  9.95262000
   6.95395000  5.53564000  9.93533000
   0.48902600  7.63551000  9.83598000
   3.06892000  7.57473000  9.77920000
   5.60150000  7.63085000  9.93421000
   8.21453000  7.57071000  9.91794000
   5.57366000  1.66917000 11.91370000
   8.17240000  1.80942000 12.03920000
   0.60285700  1.75420000 12.03750000
   3.07492000  1.82221000 11.94460000
   6.97303000  3.97713000 12.07180000
   9.37543000  4.04152000 11.98780000
   1.78653000  3.94284000 11.95220000
   4.39227000  4.06974000 11.96430000
   8.26042000  6.18694000 11.96220000
   0.60152400  6.16648000 11.93650000
   3.22070000  6.24505000 11.99690000
[...]
      0.63377      0.36591     14.03060         0.017749     -0.227325      0.070394
      3.16887      0.36591     14.03060         0.167548     -0.045078     -0.135190
      6.97151      2.56137     14.03060        -0.231356     -0.192395      0.253182
      9.50660      2.56137     14.03060        -0.012548      0.012217      0.171667
      1.90132      2.56137     14.03060         0.017310     -0.018834      0.163141
      4.43642      2.56137     14.03060         0.007076     -0.012659     -0.144307
      8.23906      4.75682     14.03060        -0.016132      0.077954      0.384121
      0.63377      4.75682     14.03060        -0.061607     -0.019541     -0.008479
      3.16887      4.75682     14.03060        -0.096455     -0.052379     -0.001670
      5.70396      4.75682     14.03060        -0.114352     -0.008177      0.180992
      9.50660      6.95228     14.03060         0.044119     -0.005485     -0.049850
      1.90132      6.95228     14.03060        -0.067498     -0.050712     -0.000990
      4.43642      6.95228     14.03060         0.108836      0.126950     -0.182008
      6.97151      6.95228     14.03060         0.018108     -0.074076      0.102119
      6.97151      1.09773     16.10050         0.102291     -0.079313     -0.231833
      9.50660      1.09773     16.10050         0.044378     -0.203589     -0.147952
      1.90132      1.09773     16.10050        -0.053223     -0.055872      0.019927
      4.43642      1.09773     16.10050        -0.035094      0.058110     -0.132385
      8.23906      3.29318     16.10050        -0.176381      0.221196     -0.253305
      0.63377      3.29318     16.10050         0.096348     -0.062603     -0.108908
      3.16887      3.29318     16.10050         0.040703      0.177024     -0.125626
      5.70396      3.29318     16.10050        -0.051054      0.142547     -0.046367
      9.50660      5.48864     16.10050        -0.012613      0.161206      0.075142
      1.90132      5.48864     16.10050        -0.075016     -0.033024     -0.236319
      4.43642      5.48864     16.10050         0.103799     -0.005563     -0.042797
      6.97151      5.48864     16.10050         0.010329     -0.022197      0.047680
      0.63377      7.68410     16.10050         0.025950      0.063579     -0.013048
      3.16887      7.68410     16.10050        -0.111446      0.042271     -0.222412
      5.70396      7.68410     16.10050         0.055957      0.033328      0.248132
      8.23906      7.68410     16.10050         0.031967      0.039441      0.055082
      5.77311      1.84796     18.07840        -0.542848     -0.365858      0.647003
      8.32761      1.91705     18.07750        -0.824246     -0.346265      0.361357
      0.54865      1.80446     18.18750         0.669722      0.100575     -0.418286
      3.10342      1.92004     18.11390         0.087955     -0.471114     -0.170863
      6.87704      4.03990     18.23530         0.664548      0.221497     -0.437847
      9.50721      4.00838     18.08840        -0.066980      0.821521      0.315630
      1.87864      4.04901     18.17140        -0.086808      0.228490     -0.262126
      4.43072      4.05594     18.22840        -0.103395     -0.106509     -0.062500
      8.16839      6.26464     18.18700         0.634983     -0.408972     -0.301096
      0.72464      6.27761     18.17970        -0.642752     -0.333730     -0.224617
      3.15664      6.21270     18.09350        -0.156363     -0.169936     -0.133421
      5.71494      6.19124     18.20850        -0.445535      0.433235     -0.738088
      9.55886      8.33044     18.23140        -0.114615      0.706583     -0.774704
      1.90274      8.42407     18.21610        -0.261647      0.065321     -0.530988
      4.30611      8.43817     18.13250         1.164261      0.454555     -0.085769
      7.10917      8.50468     18.22890        -0.946022     -0.094384     -0.470770
      5.71704      0.46288     20.32280        -0.166956     -0.414967     -0.114466
      8.25771      0.56784     20.12160         0.196114     -0.255977      0.433320
      0.64888      0.46099     20.19670        -0.292303      0.077496      0.220363
      3.09303      0.41862     20.13040        -0.008123     -0.076908      0.434235
      6.86132      2.62112     20.13740         0.333408      0.158117      0.215363
      9.48917      2.71778     20.15030        -0.181755     -0.109638      0.373138
      1.83791      2.69479     20.11560        -0.135075     -0.227949      0.505212
      4.26449      2.43927     20.10950         0.782275      0.973090      0.133864
      8.21189      4.89022     20.25560         0.029112     -0.302543     -0.311687
      0.50052      4.92552     20.15230         0.293750     -0.496008      0.150258
      3.09681      4.88149     20.20710         0.008043     -0.638895     -0.189124
      5.74939      4.92068     20.28970        -0.827896     -0.811792      0.404379
      9.45860      7.10402     20.20390        -0.231841     -0.298497      0.179657
      1.85845      7.01277     20.27290        -0.436467      0.081116      0.271170
      4.21581      6.99732     19.99910         1.133020      0.225011      0.942013
      6.86230      6.97592     20.09720         0.438453      0.770131      0.633563
      2.27080      7.34397     28.38030         0.806600     -1.078619      0.212623
      4.58606      3.75174      2.03630         0.340114     -0.554282     -0.896544
      9.86802      1.88183     30.00090         1.908053      0.496112     -0.372383
      0.67067      4.49994     24.69650        -0.035164      1.054204      0.383192
      5.51948      8.27218     30.04400         0.223535     -1.300282      0.066969
      8.10304      4.28658     23.44390         0.439034     -1.674576     -0.729932
      3.42363      7.39169      4.11025         0.028533      0.433982     -1.845005
      7.73493      3.21269      7.55934        -0.452922      0.390255      0.077682
      0.82522      4.46682     29.71240        -1.025351      0.575265     -0.080095
      7.19188      6.59428      6.49808        -1.421158     -0.912477     -1.153152
      5.34574      2.58479      4.89928         0.500040      1.327165      1.310789
      1.38487      6.61722     22.63810        -0.299487      1.091674      0.207721
      6.35060      1.34800     25.18730         1.081359      2.022613     -0.394066
      2.07929      2.49666      6.19030         0.601072      0.878003     -0.036537
      6.12298      6.55062     25.43390        -1.843150     -2.206504     -0.321064
      0.22228      4.87932      6.18600         1.310879     -0.813478     -1.511031
      3.62131      1.56475      0.51160        -1.189568      0.013439      0.431142
      6.16237      5.92724      1.31870        -0.369134     -0.971886      0.898185
      7.58199      7.36188     27.68770        -1.153850     -0.436421      1.311984
      6.23395      3.79344     26.38730         0.509508      1.332133     -0.683681
      0.64082      0.09750     23.63180         0.162308     -0.203482      0.664623
      8.30382      7.79172      4.42920        -1.153277     -0.529303      0.866450
      5.11970      4.78165      6.73815        -0.613845      0.143043     -1.802054
      2.53598      3.02545     26.03460        -1.277252      0.084827     -1.246700
      8.75975      0.29490     25.93600        -0.693944      0.101235     -0.714829
      3.84948      2.17357     23.21760         0.581829      0.088789      1.297780
      4.21915      0.52976     26.95150         1.495104      0.657391      0.012289
      1.16001      1.27966      2.46534         0.667837     -1.368752     -0.411497
      4.20737      6.80651     23.54960         0.879578      0.286277      0.864818
      6.32551      3.79500     29.23840         0.833218      0.470828      0.042125
      0.51871      8.34572      6.96214        -0.990030     -0.422699     -2.604011
      0.43722      4.02294      2.50929        -0.696221     -0.363535      1.526637
     10.10790      6.39023     26.35410         1.122757      1.148855     -3.173358
      2.37610      6.55583      6.49690        -0.667613     -1.508065     -0.486747
      8.32644      6.82303     23.33840         1.222906     -0.072027     -0.090680
      2.73365      4.26202      3.86649        -1.497496      0.215205     -0.778909
      5.36449      0.47107      2.85466         1.047787     -0.575206      1.211682
      0.36444      1.74355     27.40050        -0.156079     -0.366707     -0.944607
      4.41795      1.57999      7.68750         0.404165     -0.445247     -0.642008
      7.30872      1.63246      0.44211         0.440798      1.002882     -0.016352
      3.08314      3.33688     28.78400        -0.903501      0.923584      0.831420
      9.31998      1.84787      5.80378         0.862565     -1.708056      1.308157
      8.03269      8.37899      1.86245         1.033853     -1.007486      1.217214
      5.38201      4.55814     22.80450         0.219324     -1.758990      0.582902
      9.80689      6.91349     29.28590         0.006760     -0.993353      1.105717
      5.87318      0.06789     22.55570        -1.188247     -1.645134     -0.605476
      7.91628      2.87487      3.09049        -0.169420      0.706600      1.481768
      0.73755      7.73699      3.87420         1.661635      1.079387      0.193986
      3.51055      5.36086     26.29170         0.107466      1.825909     -1.691929
      5.34835      8.48584      5.91469         0.759449     -1.001456      0.998649
      2.71849      7.37181     29.25850        -0.404278     -0.296451     -1.124701
      2.58044      6.50374     27.91800        -0.264601      1.332602      0.710876
      4.20559      3.10086      1.38075         0.458147      0.536303      0.821149
      3.89161      3.93646      2.69036        -0.452685     -0.130991      0.150435
      6.83476      7.07783     25.66600         2.060002      1.571696      0.670570
      8.99336      1.66379      0.17737        -1.520885     -0.323650      0.539964
      9.94694      4.21289     24.36180        -0.132697      0.088982     -0.021034
      0.46042      5.30368     25.29430         0.043655     -1.326023     -0.637574
      5.74618      7.39198      0.34569        -0.222337      0.974445     -0.305877
      4.60352      8.43862      0.16566         0.150230      0.337948      0.052168
      6.88756      2.91822      7.19223        -0.038429      0.061109      0.244695
      8.51194      4.07748     22.54640        -0.715600      0.561471      1.256102
      6.23616      2.29238     25.59170         0.218910     -1.564791     -0.394947
      4.08391      8.06676      3.81206        -0.379978     -0.654960      0.328639
      5.28118      3.43138      5.47902        -0.045547     -1.688365     -1.515440
      8.38733      2.76416      6.99692         0.429550     -0.426388     -0.345727
      0.18928      3.72435     29.75390         0.313804     -0.204603     -0.096158
      6.73954      5.70105      6.49201         0.501483      1.065385      0.401099
      7.86795      6.65332      7.15584         0.709777     -0.217183      0.966226
      6.61064      4.58022     25.85530        -0.773729     -1.452487      1.619601
      5.22566      2.77579      3.95802        -0.324978      0.347251      0.159073
      5.11775      4.81743      7.68912        -0.061427     -0.119124      1.344474
      1.32149      5.93253     23.28940         0.020714     -1.825170      0.507359
      0.96535      7.35452     23.17970         0.635347      0.426578     -0.853383
      8.05555      5.25301     23.54000         0.267969      0.555794     -0.452915
      5.76329      0.78133     25.65710        -1.200738     -0.508090      0.901650
      2.32784      2.97709      5.37548         0.217714     -0.278735      0.222302
      1.43417      1.84781      5.93494        -0.570477     -0.595428     -0.216004
      3.46776      7.31617      5.05323         0.206175      0.143917      1.090852
      5.65775      6.93161     24.69460        -0.119731      0.641054     -0.152162
      0.61913      4.00283      5.93739        -0.083491      0.914558     -0.011294
      2.85257      1.45493      1.11102         0.389809     -0.168659      0.014548
      3.20866      2.09723     29.90440         0.613907      0.051970     -0.249792
      5.62699      5.20131      1.76689         0.235948      0.525742     -0.959417
      6.73437      6.22323      2.03923         0.142778      0.302497     -0.362894
      6.73454      7.79471     27.97370         1.289528     -0.325434     -0.556347
      8.04534      7.88314     27.02310        -0.169793      1.128543     -0.355915
      9.91174      4.57929      6.94873        -1.117956     -0.002348      1.708476
      6.40467      3.87794     27.36170         0.085782      0.253947     -0.918834
     10.12040      0.16946     24.35520        -0.093240      0.438174     -0.681763
      0.38545      0.55768     22.81760        -0.429765      0.125275      0.372461
      0.28734      5.24222     29.38200         0.570781     -0.376592      0.480829
      9.21889      7.65811      4.72691        -0.378287      0.098875      0.108549
      7.67713      7.32104      5.09349         1.642200      0.574911     -0.987566
      4.22647      5.10201      6.47458         0.620727     -0.069727      0.250120
      2.95968      3.91515     25.92810         0.250453     -0.226809      0.455328
      7.91506      0.72784     25.52420         1.088655     -0.218059      0.887005
      3.35274      2.11624     24.06460         0.212905      0.189738     -0.495382
      9.23211      0.92409     26.53670        -0.076476      0.113627     -0.477773
      1.70769      3.26906     25.50920         0.742788     -0.349900      0.634869
      3.21852      2.18643     22.50490        -0.735749     -0.081625     -0.540774
      4.37221      0.35391     27.87610         0.325234     -0.059404      0.536084
      3.38672      0.12809     26.82630        -1.647620     -0.690471     -0.440649
      0.85091      0.59451      3.08434         0.021390     -0.175381     -0.385837
      4.85085      6.04781     23.46510        -1.247476     -0.116904     -0.898023
      6.72504      4.50330     29.80090        -0.848852     -0.566472     -0.335070
      0.74818      2.06992      2.75469        -0.595823      1.541367      0.243793
      5.39438      3.71492     29.46060        -0.384743      0.355499      0.118659
      1.02714      8.48519      7.74262         0.906348      0.202246      1.211954
      1.05852      7.73633      6.36853        -0.444176      0.970867      1.184866
      9.65142      3.89862      2.82443         0.394020     -0.009718     -0.248110
      9.84055      6.15269     27.19030        -1.091072     -0.675230      3.000865
      0.40801      4.34250      1.61904         0.031984      0.369073     -1.269859
      9.79248      7.28618     26.15390        -0.069151     -0.154101      0.100109
      0.38074      7.33194     28.84120         1.850274      0.606525     -0.516102
      1.62329      5.86988      6.55332         0.804487      0.644766     -0.267383
      2.68733      6.61155      7.40311         0.190687      0.199840      0.694330
      7.67356      7.51814     23.21620         0.075446      0.421552     -0.590090
      1.84803      4.15305      3.34759         1.289900      0.237612      0.816799
      6.32734      0.38746      2.65265        -0.965376     -0.048687     -0.302906
      2.90414      5.21939      3.80934        -0.013059     -0.048712      0.306742
      9.09576      6.89641     22.70390        -1.381799      0.324265      0.641459
      4.94051      0.84263      2.09557        -0.087570      0.468958     -0.948983
      1.08750      2.33926     27.17240         0.165959      0.013924     -0.109351
      0.09502      1.90988     28.30080        -0.033582      0.066387      0.910982
      3.44371      6.68818     22.98070        -0.404522     -0.386492     -0.358887
      6.86866      2.26537     29.98170         0.162679      0.434364      0.029742
      3.01269      3.14802     27.83430        -0.227156     -0.062886     -0.214114
      6.83837      0.82553      0.28742        -0.637468     -1.332958      0.032242
      4.98444      0.99256      7.06247        -1.436164      0.505448      0.617038
      2.27117      3.91044     29.04120         1.188675     -0.993537     -0.542882
      8.71893      1.55043      5.12872        -0.509250     -0.028497     -0.795554
      9.57483      0.95605      6.24093        -0.076446      1.487704     -0.468453
      0.39878      1.50201      0.46271        -0.503900      0.072987      0.100291
      8.83512      8.37059      1.30390        -0.602276     -0.098578      0.451648
      4.88243      3.69817     22.97990        -0.133336      1.007796     -0.318617
      8.30256      7.95766      2.76134        -0.427488      0.882823     -1.316984
      6.25678      4.27253     23.16940         0.180265      0.530743     -0.438120
      9.05874      7.33108     28.89220        -1.847664      0.265070     -0.505780
      3.55414      1.81942      7.25893         0.844091     -0.281818     -0.107758
      5.04957      8.25942     22.62240         1.373076      0.545479      0.085761
      5.63460      0.76787     23.16030         0.032379      0.964683      0.527358
      7.18898      2.81916      3.76513         0.762876     -0.095296     -0.914067
      7.80614      2.16210      2.46701        -0.421242     -0.507582     -0.589117
      0.54002      6.82653      3.74874        -0.344720     -1.292420     -0.377104
      1.75410      7.74684      3.86778        -0.765536     -0.168681      0.280110
      3.53069      5.94918     25.45170         0.121814     -1.119946      1.740358
      4.44967      5.19293     26.47150         0.090206      0.041178     -0.105308
      5.65500      0.22401      5.16481         0.259233     -0.008248     -0.113331
      6.03591      7.77555      6.19415        -1.026962      1.493387     -0.590604
 -----------------------------------------------------------------------------------
    total drift:                                0.000565     -0.023338      0.032354


--------------------------------------------------------------------------------------------------------



  FREE ENERGIE OF THE ION-ELECTRON SYSTEM (eV)
  ---------------------------------------------------
  free  energy   TOTEN  =     -1811.54215861 eV

  energy  without entropy=    -1811.29755903  energy(sigma->0) =    -1811.41985882
 


--------------------------------------------------------------------------------------------------------


    POTLOK:  cpu time     11.9856: real time     12.0046


--------------------------------------------------------------------------------------------------------


 writing wavefunctions
     LOOP+:  cpu time    771.2845: real time    772.6018
    4ORBIT:  cpu time      0.0000: real time      0.0000

 total amount of memory used by VASP MPI-rank0  3314099. kBytes
=======================================================================

   base      :      30000. kBytes
   nonlr-proj:     189020. kBytes
   fftplans  :     312780. kBytes
   grid      :     814785. kBytes
   one-center:       3825. kBytes
   wavefun   :    1963689. kBytes
 
  
  
 General timing and accounting informations for this job:
 ========================================================
  
                  Total CPU time used (sec):      839.291
                            User time (sec):      818.511
                          System time (sec):       20.780
                         Elapsed time (sec):      841.367
  
                   Maximum memory used (kb):     4932916.
                   Average memory used (kb):          N/A
  
                          Minor page faults:      4825692
                          Major page faults:         4123
                 Voluntary context switches:        24632
