246
Lattice="10.140377178 0.0 0.0 0.0 8.78182424 0.0 0.0 0.0 30.131127158" Properties=species:S:1:pos:R:3:initial_charges:R:1:forces:R:3 NELECT0=1456.0 NELECT=1456.0 stress="0.015904557380993587 -0.002282176604333584 -0.0009028530195863909 -0.002282176604333584 0.011561833919877406 0.0014956341073080275 -0.0009028530195863909 0.0014956341073080275 0.005877335792915348" free_energy=-1811.54215861 energy=-1811.41985882 pbc="T T T"
Cu       6.89779000       1.06205000       9.91646000      -0.01874500      -0.15222900      -0.43447000       0.33567900
Cu       9.35152000       1.07753000       9.81678000      -0.01931700       0.29013500      -0.27157900       0.49583600
Cu       1.72816000       1.02487000       9.87351000      -0.05889800       0.06383400      -0.03714000       0.36674000
Cu       4.28418000       1.03470000       9.70198000       0.19911900       0.13600100       0.10075200      -0.06396100
Cu       8.08851000       3.19522000       9.78139000       0.14560400       0.00762100       0.42900400       0.20304000
Cu       0.47602000       3.20927000       9.98471000      -0.06810500       0.25342800      -0.08006100      -0.11425300
Cu       3.02706000       3.23484000       9.95828000      -0.00164200      -0.30114200      -0.03540700      -0.06792700
Cu       5.56024000       3.25999000      10.03320000      -0.01794000       0.63247300      -0.48284300      -0.09155200
Cu       9.52142000       5.37827000      10.03180000      -0.07204100      -0.64590500       0.23905600      -0.78535800
Cu       1.77335000       5.51409000       9.96417000      -0.05914300       0.64844200      -0.49786400      -0.20829800
Cu       4.34774000       5.21874000       9.95262000      -0.10858400      -0.14593400       1.81752200      -0.42209300
Cu       6.95395000       5.53564000       9.93533000      -0.03741400      -0.18020400      -0.71863300      -0.06857800
Cu       0.48903000       7.63551000       9.83598000      -0.01142400       0.38903200       0.09108000       0.34172300
Cu       3.06892000       7.57473000       9.77920000      -0.07730000      -0.01990600       0.07295000       0.38581700
Cu       5.60150000       7.63085000       9.93421000      -0.03669900       0.32138300      -0.29907800      -0.59509000
Cu       8.21453000       7.57071000       9.91794000      -0.06870400      -0.22218300       0.52140700      -0.03154100
Cu       5.57366000       1.66917000      11.91370000       0.01525300       0.38659400       0.80778200       0.09778200
Cu       8.17240000       1.80942000      12.03920000       0.02519400       0.04594300      -0.12637500      -0.77571500
Cu       0.60286000       1.75420000      12.03750000       0.02386900      -0.23023600       0.15158800      -0.51673600
Cu       3.07492000       1.82221000      11.94460000       0.02179300       0.41509700      -0.17592600      -0.12076900
Cu       6.97303000       3.97713000      12.07180000       0.02631400      -0.45980100      -0.08862600      -0.94673100
Cu       9.37543000       4.04152000      11.98780000       0.02122900       0.51910000      -0.76477400       0.00331500
Cu       1.78653000       3.94284000      11.95220000       0.02293300       0.24154100       0.47291200       0.17989800
Cu       4.39227000       4.06974000      11.96430000       0.01146000      -0.11590900      -0.75082800       0.75192000
Cu       8.26042000       6.18694000      11.96220000       0.02155600      -0.18136400       0.22021500       0.25454400
Cu       0.60152000       6.16648000      11.93650000       0.00736500       0.30946700       0.52422000       0.61955400
Cu       3.22070000       6.24505000      11.99690000       0.01106600      -0.28710000      -0.28385000      -0.32369000
Cu       5.77662000       6.15057000      11.92980000       0.03501500      -0.62259200       0.14230900       0.32409400
Cu       9.49009000       8.42153000      11.92600000       0.02572600       0.07714600      -0.15605300       0.09214300
Cu       2.00313000       8.36555000      11.96960000       0.01738300      -0.81410500       0.04205200      -0.32291200
Cu       4.42544000       8.41923000      11.75940000       0.01462600      -0.37392900      -0.23338300       0.84508600
Cu       6.93922000       8.29452000      11.95670000       0.02019900       0.16866800       0.59123600      -0.06432400
Cu       5.70396000       0.36591000      14.03060000       0.00119800      -0.03807800      -0.12025900      -0.08776800
Cu       8.23906000       0.36591000      14.03060000       0.00761200      -0.02181300      -0.13569200       0.00607200
Cu       0.63377000       0.36591000      14.03060000       0.00404800       0.01774900      -0.22732500       0.07039400
Cu       3.16887000       0.36591000      14.03060000       0.01133500       0.16754800      -0.04507800      -0.13519000
Cu       6.97151000       2.56137000      14.03060000      -0.02262500      -0.23135600      -0.19239500       0.25318200
Cu       9.50660000       2.56137000      14.03060000       0.03676900      -0.01254800       0.01221700       0.17166700
Cu       1.90132000       2.56137000      14.03060000      -0.02040800       0.01731000      -0.01883400       0.16314100
Cu       4.43642000       2.56137000      14.03060000       0.02180200       0.00707600      -0.01265900      -0.14430700
Cu       8.23906000       4.75682000      14.03060000      -0.01915400      -0.01613200       0.07795400       0.38412100
Cu       0.63377000       4.75682000      14.03060000       0.00059900      -0.06160700      -0.01954100      -0.00847900
Cu       3.16887000       4.75682000      14.03060000      -0.00120900      -0.09645500      -0.05237900      -0.00167000
Cu       5.70396000       4.75682000      14.03060000       0.02417100      -0.11435200      -0.00817700       0.18099200
Cu       9.50660000       6.95228000      14.03060000      -0.00335000       0.04411900      -0.00548500      -0.04985000
Cu       1.90132000       6.95228000      14.03060000      -0.00524400      -0.06749800      -0.05071200      -0.00099000
Cu       4.43642000       6.95228000      14.03060000       0.03541000       0.10883600       0.12695000      -0.18200800
Cu       6.97151000       6.95228000      14.03060000      -0.02225900       0.01810800      -0.07407600       0.10211900
Cu       6.97151000       1.09773000      16.10050000      -0.00779000       0.10229100      -0.07931300      -0.23183300
Cu       9.50660000       1.09773000      16.10050000      -0.01709600       0.04437800      -0.20358900      -0.14795200
Cu       1.90132000       1.09773000      16.10050000       0.00340600      -0.05322300      -0.05587200       0.01992700
Cu       4.43642000       1.09773000      16.10050000       0.02272500      -0.03509400       0.05811000      -0.13238500
Cu       8.23906000       3.29318000      16.10050000       0.00700100      -0.17638100       0.22119600      -0.25330500
Cu       0.63377000       3.29318000      16.10050000       0.03447300       0.09634800      -0.06260300      -0.10890800
Cu       3.16887000       3.29318000      16.10050000       0.00317200       0.04070300       0.17702400      -0.12562600
Cu       5.70396000       3.29318000      16.10050000      -0.02246800      -0.05105400       0.14254700      -0.04636700
Cu       9.50660000       5.48864000      16.10050000       0.00113800      -0.01261300       0.16120600       0.07514200
Cu       1.90132000       5.48864000      16.10050000      -0.02648200      -0.07501600      -0.03302400      -0.23631900
Cu       4.43642000       5.48864000      16.10050000       0.02958200       0.10379900      -0.00556300      -0.04279700
Cu       6.97151000       5.48864000      16.10050000      -0.00550400       0.01032900      -0.02219700       0.04768000
Cu       0.63377000       7.68410000      16.10050000      -0.02976200       0.02595000       0.06357900      -0.01304800
Cu       3.16887000       7.68410000      16.10050000       0.00421900      -0.11144600       0.04227100      -0.22241200
Cu       5.70396000       7.68410000      16.10050000       0.03121400       0.05595700       0.03332800       0.24813200
Cu       8.23906000       7.68410000      16.10050000      -0.00145400       0.03196700       0.03944100       0.05508200
Cu       5.77311000       1.84796000      18.07840000       0.02584100      -0.54284800      -0.36585800       0.64700300
Cu       8.32761000       1.91705000      18.07750000       0.00965300      -0.82424600      -0.34626500       0.36135700
Cu       0.54865000       1.80446000      18.18750000       0.02310400       0.66972200       0.10057500      -0.41828600
Cu       3.10342000       1.92004000      18.11390000       0.01736300       0.08795500      -0.47111400      -0.17086300
Cu       6.87704000       4.03990000      18.23530000       0.03948900       0.66454800       0.22149700      -0.43784700
Cu       9.50721000       4.00838000      18.08840000       0.02087100      -0.06698000       0.82152100       0.31563000
Cu       1.87864000       4.04901000      18.17140000       0.02774200      -0.08680800       0.22849000      -0.26212600
Cu       4.43072000       4.05594000      18.22840000       0.01950200      -0.10339500      -0.10650900      -0.06250000
Cu       8.16839000       6.26464000      18.18700000       0.02278700       0.63498300      -0.40897200      -0.30109600
Cu       0.72464000       6.27761000      18.17970000       0.02657900      -0.64275200      -0.33373000      -0.22461700
Cu       3.15664000       6.21270000      18.09350000       0.02372900      -0.15636300      -0.16993600      -0.13342100
Cu       5.71494000       6.19124000      18.20850000       0.01814400      -0.44553500       0.43323500      -0.73808800
Cu       9.55886000       8.33044000      18.23140000       0.01669700      -0.11461500       0.70658300      -0.77470400
Cu       1.90274000       8.42407000      18.21610000       0.03820000      -0.26164700       0.06532100      -0.53098800
Cu       4.30611000       8.43817000      18.13250000       0.02216000       1.16426100       0.45455500      -0.08576900
Cu       7.10917000       8.50468000      18.22890000       0.02668400      -0.94602200      -0.09438400      -0.47077000
Cu       5.71704000       0.46288000      20.32280000       0.14551300      -0.16695600      -0.41496700      -0.11446600
Cu       8.25771000       0.56784000      20.12160000      -0.03565700       0.19611400      -0.25597700       0.43332000
Cu       0.64888000       0.46099000      20.19670000      -0.07276200      -0.29230300       0.07749600       0.22036300
Cu       3.09303000       0.41862000      20.13040000      -0.05156000      -0.00812300      -0.07690800       0.43423500
Cu       6.86132000       2.62112000      20.13740000      -0.02416800       0.33340800       0.15811700       0.21536300
Cu       9.48917000       2.71778000      20.15030000      -0.07226100      -0.18175500      -0.10963800       0.37313800
Cu       1.83791000       2.69479000      20.11560000      -0.06927500      -0.13507500      -0.22794900       0.50521200
Cu       4.26449000       2.43927000      20.10950000      -0.03962600       0.78227500       0.97309000       0.13386400
Cu       8.21189000       4.89022000      20.25560000      -0.04224200       0.02911200      -0.30254300      -0.31168700
Cu       0.50052000       4.92552000      20.15230000      -0.02230700       0.29375000      -0.49600800       0.15025800
Cu       3.09681000       4.88149000      20.20710000       0.00080800       0.00804300      -0.63889500      -0.18912400
Cu       5.74939000       4.92068000      20.28970000       0.09240800      -0.82789600      -0.81179200       0.40437900
Cu       9.45860000       7.10402000      20.20390000      -0.03784700      -0.23184100      -0.29849700       0.17965700
Cu       1.85845000       7.01277000      20.27290000       0.12602600      -0.43646700       0.08111600       0.27117000
Cu       4.21581000       6.99732000      19.99910000      -0.06984500       1.13302000       0.22501100       0.94201300
Cu       6.86230000       6.97592000      20.09720000      -0.02098600       0.43845300       0.77013100       0.63356300
O        2.27080000       7.34397000      28.38030000      -1.24399800       0.80660000      -1.07861900       0.21262300
O        4.58606000       3.75174000       2.03630000      -1.33683900       0.34011400      -0.55428200      -0.89654400
O        9.86802000       1.88183000      30.00090000      -1.36700700       1.90805300       0.49611200      -0.37238300
O        0.67067000       4.49994000      24.69650000      -1.33232900      -0.03516400       1.05420400       0.38319200
O        5.51948000       8.27218000      30.04400000      -1.30543600       0.22353500      -1.30028200       0.06696900
O        8.10304000       4.28658000      23.44390000      -1.32273200       0.43903400      -1.67457600      -0.72993200
O        3.42363000       7.39169000       4.11025000      -1.30363900       0.02853300       0.43398200      -1.84500500
O        7.73493000       3.21269000       7.55934000      -1.34699100      -0.45292200       0.39025500       0.07768200
O        0.82522000       4.46682000      29.71240000      -1.31856000      -1.02535100       0.57526500      -0.08009500
O        7.19188000       6.59428000       6.49808000      -1.31768700      -1.42115800      -0.91247700      -1.15315200
O        5.34574000       2.58479000       4.89928000      -1.31179400       0.50004000       1.32716500       1.31078900
O        1.38487000       6.61722000      22.63810000      -1.33615100      -0.29948700       1.09167400       0.20772100
O        6.35060000       1.34800000      25.18730000      -1.34050200       1.08135900       2.02261300      -0.39406600
O        2.07929000       2.49666000       6.19030000      -1.31697800       0.60107200       0.87800300      -0.03653700
O        6.12298000       6.55062000      25.43390000      -1.32766700      -1.84315000      -2.20650400      -0.32106400
O        0.22228000       4.87932000       6.18600000      -1.28928300       1.31087900      -0.81347800      -1.51103100
O        3.62131000       1.56475000       0.51160000      -1.31838000      -1.18956800       0.01343900       0.43114200
O        6.16237000       5.92724000       1.31870000      -1.28546200      -0.36913400      -0.97188600       0.89818500
O        7.58199000       7.36188000      27.68770000      -1.31543800      -1.15385000      -0.43642100       1.31198400
O        6.23395000       3.79344000      26.38730000      -1.31128500       0.50950800       1.33213300      -0.68368100
O        0.64082000       0.09750000      23.63180000      -1.33074200       0.16230800      -0.20348200       0.66462300
O        8.30382000       7.79172000       4.42920000      -1.34333600      -1.15327700      -0.52930300       0.86645000
O        5.11970000       4.78165000       6.73815000      -1.28484300      -0.61384500       0.14304300      -1.80205400
O        2.53598000       3.02545000      26.03460000      -1.32562100      -1.27725200       0.08482700      -1.24670000
O        8.75975000       0.29490000      25.93600000      -1.37424200      -0.69394400       0.10123500      -0.71482900
O        3.84948000       2.17357000      23.21760000      -1.32916300       0.58182900       0.08878900       1.29778000
O        4.21915000       0.52976000      26.95150000      -1.28437500       1.49510400       0.65739100       0.01228900
O        1.16001000       1.27966000       2.46534000      -1.35512200       0.66783700      -1.36875200      -0.41149700
O        4.20737000       6.80651000      23.54960000      -1.37132600       0.87957800       0.28627700       0.86481800
O        6.32551000       3.79500000      29.23840000      -1.27279400       0.83321800       0.47082800       0.04212500
O        0.51871000       8.34572000       6.96214000      -1.32467100      -0.99003000      -0.42269900      -2.60401100
O        0.43722000       4.02294000       2.50929000      -1.32856500      -0.69622100      -0.36353500       1.52663700
O       10.10790000       6.39023000      26.35410000      -1.33909100       1.12275700       1.14885500      -3.17335800
O        2.37610000       6.55583000       6.49690000      -1.31506200      -0.66761300      -1.50806500      -0.48674700
O        8.32644000       6.82303000      23.33840000      -1.30286900       1.22290600      -0.07202700      -0.09068000
O        2.73365000       4.26202000       3.86649000      -1.28922800      -1.49749600       0.21520500      -0.77890900
O        5.36449000       0.47107000       2.85466000      -1.30736800       1.04778700      -0.57520600       1.21168200
O        0.36444000       1.74355000      27.40050000      -1.37478700      -0.15607900      -0.36670700      -0.94460700
O        4.41795000       1.57999000       7.68750000      -1.31734500       0.40416500      -0.44524700      -0.64200800
O        7.30872000       1.63246000       0.44211000      -1.34816000       0.44079800       1.00288200      -0.01635200
O        3.08314000       3.33688000      28.78400000      -1.33119700      -0.90350100       0.92358400       0.83142000
O        9.31998000       1.84787000       5.80378000      -1.31124800       0.86256500      -1.70805600       1.30815700
O        8.03269000       8.37899000       1.86245000      -1.29439400       1.03385300      -1.00748600       1.21721400
O        5.38201000       4.55814000      22.80450000      -1.32909300       0.21932400      -1.75899000       0.58290200
O        9.80689000       6.91349000      29.28590000      -1.34521100       0.00676000      -0.99335300       1.10571700
O        5.87318000       0.06789000      22.55570000      -1.30311300      -1.18824700      -1.64513400      -0.60547600
O        7.91628000       2.87487000       3.09049000      -1.31754900      -0.16942000       0.70660000       1.48176800
O        0.73755000       7.73699000       3.87420000      -1.31922500       1.66163500       1.07938700       0.19398600
O        3.51055000       5.36086000      26.29170000      -1.28303900       0.10746600       1.82590900      -1.69192900
O        5.34835000       8.48584000       5.91469000      -1.31855900       0.75944900      -1.00145600       0.99864900
H        2.71849000       7.37181000      29.25850000       0.60471600      -0.40427800      -0.29645100      -1.12470100
H        2.58044000       6.50374000      27.91800000       0.64825600      -0.26460100       1.33260200       0.71087600
H        4.20559000       3.10086000       1.38075000       0.64733900       0.45814700       0.53630300       0.82114900
H        3.89161000       3.93646000       2.69036000       0.65928400      -0.45268500      -0.13099100       0.15043500
H        6.83476000       7.07783000      25.66600000       0.65043200       2.06000200       1.57169600       0.67057000
H        8.99336000       1.66379000       0.17737000       0.72355600      -1.52088500      -0.32365000       0.53996400
H        9.94694000       4.21289000      24.36180000       0.65141300      -0.13269700       0.08898200      -0.02103400
H        0.46042000       5.30368000      25.29430000       0.67015900       0.04365500      -1.32602300      -0.63757400
H        5.74618000       7.39198000       0.34569000       0.67076000      -0.22233700       0.97444500      -0.30587700
H        4.60352000       8.43862000       0.16566000       0.62554300       0.15023000       0.33794800       0.05216800
H        6.88756000       2.91822000       7.19223000       0.67316500      -0.03842900       0.06110900       0.24469500
H        8.51194000       4.07748000      22.54640000       0.57741100      -0.71560000       0.56147100       1.25610200
H        6.23616000       2.29238000      25.59170000       0.67103400       0.21891000      -1.56479100      -0.39494700
H        4.08391000       8.06676000       3.81206000       0.65002300      -0.37997800      -0.65496000       0.32863900
H        5.28118000       3.43138000       5.47902000       0.63469900      -0.04554700      -1.68836500      -1.51544000
H        8.38733000       2.76416000       6.99692000       0.67334800       0.42955000      -0.42638800      -0.34572700
H        0.18928000       3.72435000      29.75390000       0.65998700       0.31380400      -0.20460300      -0.09615800
H        6.73954000       5.70105000       6.49201000       0.67382200       0.50148300       1.06538500       0.40109900
H        7.86795000       6.65332000       7.15584000       0.65613800       0.70977700      -0.21718300       0.96622600
H        6.61064000       4.58022000      25.85530000       0.64448300      -0.77372900      -1.45248700       1.61960100
H        5.22566000       2.77579000       3.95802000       0.66124000      -0.32497800       0.34725100       0.15907300
H        5.11775000       4.81743000       7.68912000       0.60909500      -0.06142700      -0.11912400       1.34447400
H        1.32149000       5.93253000      23.28940000       0.64115500       0.02071400      -1.82517000       0.50735900
H        0.96535000       7.35452000      23.17970000       0.66957900       0.63534700       0.42657800      -0.85338300
H        8.05555000       5.25301000      23.54000000       0.70016300       0.26796900       0.55579400      -0.45291500
H        5.76329000       0.78133000      25.65710000       0.67880900      -1.20073800      -0.50809000       0.90165000
H        2.32784000       2.97709000       5.37548000       0.66844300       0.21771400      -0.27873500       0.22230200
H        1.43417000       1.84781000       5.93494000       0.65120300      -0.57047700      -0.59542800      -0.21600400
H        3.46776000       7.31617000       5.05323000       0.66752100       0.20617500       0.14391700       1.09085200
H        5.65775000       6.93161000      24.69460000       0.67525500      -0.11973100       0.64105400      -0.15216200
H        0.61913000       4.00283000       5.93739000       0.64142700      -0.08349100       0.91455800      -0.01129400
H        2.85257000       1.45493000       1.11102000       0.62655100       0.38980900      -0.16865900       0.01454800
H        3.20866000       2.09723000      29.90440000       0.68415800       0.61390700       0.05197000      -0.24979200
H        5.62699000       5.20131000       1.76689000       0.66221300       0.23594800       0.52574200      -0.95941700
H        6.73437000       6.22323000       2.03923000       0.62387900       0.14277800       0.30249700      -0.36289400
H        6.73454000       7.79471000      27.97370000       0.63608000       1.28952800      -0.32543400      -0.55634700
H        8.04534000       7.88314000      27.02310000       0.66771500      -0.16979300       1.12854300      -0.35591500
H        9.91174000       4.57929000       6.94873000       0.64265700      -1.11795600      -0.00234800       1.70847600
H        6.40467000       3.87794000      27.36170000       0.67711800       0.08578200       0.25394700      -0.91883400
H       10.12040000       0.16946000      24.35520000       0.67367700      -0.09324000       0.43817400      -0.68176300
H        0.38545000       0.55768000      22.81760000       0.64182000      -0.42976500       0.12527500       0.37246100
H        0.28734000       5.24222000      29.38200000       0.66027500       0.57078100      -0.37659200       0.48082900
H        9.21889000       7.65811000       4.72691000       0.66713700      -0.37828700       0.09887500       0.10854900
H        7.67713000       7.32104000       5.09349000       0.66688400       1.64220000       0.57491100      -0.98756600
H        4.22647000       5.10201000       6.47458000       0.64122300       0.62072700      -0.06972700       0.25012000
H        2.95968000       3.91515000      25.92810000       0.66436300       0.25045300      -0.22680900       0.45532800
H        7.91506000       0.72784000      25.52420000       0.67345500       1.08865500      -0.21805900       0.88700500
H        3.35274000       2.11624000      24.06460000       0.66740000       0.21290500       0.18973800      -0.49538200
H        9.23211000       0.92409000      26.53670000       0.69137300      -0.07647600       0.11362700      -0.47777300
H        1.70769000       3.26906000      25.50920000       0.63827700       0.74278800      -0.34990000       0.63486900
H        3.21852000       2.18643000      22.50490000       0.63372900      -0.73574900      -0.08162500      -0.54077400
H        4.37221000       0.35391000      27.87610000       0.61150800       0.32523400      -0.05940400       0.53608400
H        3.38672000       0.12809000      26.82630000       0.67880000      -1.64762000      -0.69047100      -0.44064900
H        0.85091000       0.59451000       3.08434000       0.67358500       0.02139000      -0.17538100      -0.38583700
H        4.85085000       6.04781000      23.46510000       0.67698200      -1.24747600      -0.11690400      -0.89802300
H        6.72504000       4.50330000      29.80090000       0.65593100      -0.84885200      -0.56647200      -0.33507000
H        0.74818000       2.06992000       2.75469000       0.67222000      -0.59582300       1.54136700       0.24379300
H        5.39438000       3.71492000      29.46060000       0.65566800      -0.38474300       0.35549900       0.11865900
H        1.02714000       8.48519000       7.74262000       0.60982500       0.90634800       0.20224600       1.21195400
H        1.05852000       7.73633000       6.36853000       0.65089700      -0.44417600       0.97086700       1.18486600
H        9.65142000       3.89862000       2.82443000       0.69016900       0.39402000      -0.00971800      -0.24811000
H        9.84055000       6.15269000      27.19030000       0.68054300      -1.09107200      -0.67523000       3.00086500
H        0.40801000       4.34250000       1.61904000       0.65796600       0.03198400       0.36907300      -1.26985900
H        9.79248000       7.28618000      26.15390000       0.67870100      -0.06915100      -0.15410100       0.10010900
H        0.38074000       7.33194000      28.84120000       0.67453600       1.85027400       0.60652500      -0.51610200
H        1.62329000       5.86988000       6.55332000       0.65498800       0.80448700       0.64476600      -0.26738300
H        2.68733000       6.61155000       7.40311000       0.61871600       0.19068700       0.19984000       0.69433000
H        7.67356000       7.51814000      23.21620000       0.66482200       0.07544600       0.42155200      -0.59009000
H        1.84803000       4.15305000       3.34759000       0.65319500       1.28990000       0.23761200       0.81679900
H        6.32734000       0.38746000       2.65265000       0.66029800      -0.96537600      -0.04868700      -0.30290600
H        2.90414000       5.21939000       3.80934000       0.64401300      -0.01305900      -0.04871200       0.30674200
H        9.09576000       6.89641000      22.70390000       0.62117100      -1.38179900       0.32426500       0.64145900
H        4.94051000       0.84263000       2.09557000       0.65308700      -0.08757000       0.46895800      -0.94898300
H        1.08750000       2.33926000      27.17240000       0.65770800       0.16595900       0.01392400      -0.10935100
H        0.09502000       1.90988000      28.30080000       0.70361500      -0.03358200       0.06638700       0.91098200
H        3.44371000       6.68818000      22.98070000       0.68092000      -0.40452200      -0.38649200      -0.35888700
H        6.86866000       2.26537000      29.98170000       0.66367800       0.16267900       0.43436400       0.02974200
H        3.01269000       3.14802000      27.83430000       0.67302500      -0.22715600      -0.06288600      -0.21411400
H        6.83837000       0.82553000       0.28742000       0.68419400      -0.63746800      -1.33295800       0.03224200
H        4.98444000       0.99256000       7.06247000       0.67790500      -1.43616400       0.50544800       0.61703800
H        2.27117000       3.91044000      29.04120000       0.65300600       1.18867500      -0.99353700      -0.54288200
H        8.71893000       1.55043000       5.12872000       0.65293200      -0.50925000      -0.02849700      -0.79555400
H        9.57483000       0.95605000       6.24093000       0.65658000      -0.07644600       1.48770400      -0.46845300
H        0.39878000       1.50201000       0.46271000       0.64186500      -0.50390000       0.07298700       0.10029100
H        8.83512000       8.37059000       1.30390000       0.61321400      -0.60227600      -0.09857800       0.45164800
H        4.88243000       3.69817000      22.97990000       0.65899900      -0.13333600       1.00779600      -0.31861700
H        8.30256000       7.95766000       2.76134000       0.66340800      -0.42748800       0.88282300      -1.31698400
H        6.25678000       4.27253000      23.16940000       0.66671100       0.18026500       0.53074300      -0.43812000
H        9.05874000       7.33108000      28.89220000       0.66588300      -1.84766400       0.26507000      -0.50578000
H        3.55414000       1.81942000       7.25893000       0.66615400       0.84409100      -0.28181800      -0.10775800
H        5.04957000       8.25942000      22.62240000       0.64309700       1.37307600       0.54547900       0.08576100
H        5.63460000       0.76787000      23.16030000       0.67291700       0.03237900       0.96468300       0.52735800
H        7.18898000       2.81916000       3.76513000       0.62660500       0.76287600      -0.09529600      -0.91406700
H        7.80614000       2.16210000       2.46701000       0.68021600      -0.42124200      -0.50758200      -0.58911700
H        0.54002000       6.82653000       3.74874000       0.65854000      -0.34472000      -1.29242000      -0.37710400
H        1.75410000       7.74684000       3.86778000       0.65326900      -0.76553600      -0.16868100       0.28011000