LAMMPS (28 Mar 2023 - Development)
KOKKOS mode is enabled (src/KOKKOS/kokkos.cpp:107)
  will use up to 1 GPU(s) per node
  using 1 OpenMP thread(s) per MPI task
package kokkos
# LAMMPS input script

# == SETUP ==
units metal #ps A K  pressure in bars
atom_style atomic

atom_modify map yes
newton on

timer timeout 23:55:00
New timer settings: style=normal  mode=nosync  timeout=23:55:00

# == VARIABLES ==
variable    temp_water equal 330  # Temperature of water system
variable    temp_Cu_mobile equal 310 # Temperatureof the Cu atom (not fixed). 310 K ensures a temperature of 330 K in the outermost Cu atoms.
variable    seed1 equal 256982574
variable    seed2 equal 1008705
variable    stride equal 1000
variable    nsteps equal 2000000 # 1000 ps
variable    tstep equal 0.0005 # 0.5fs

# == DATA ==
boundary p p p #full
read_data Cu_H2O_m2.data
Reading data file ...
  orthogonal box = (0 0 0) to (10.140377 8.7818242 30.131127)
  1 by 1 by 1 MPI processor grid
  reading atoms ...
  246 atoms
  reading velocities ...
  246 velocities
  read_data CPU = 0.071 seconds
mass		1 63.55   # Cu
mass		2 2.0016  # H
mass 		3 15.9994 # O

# == Define GROUPS ==
group H2O type 2 3
150 atoms in group H2O

# == DEFINE FIX Cu layers ==
variable z_fix_bottom equal 13.5 # A
variable z_fix_up equal 16.5# # A
region fixedlayer block  INF INF INF INF ${z_fix_bottom} ${z_fix_up} #
region fixedlayer block  INF INF INF INF 13.5 ${z_fix_up} 
region fixedlayer block  INF INF INF INF 13.5 16.5 

group Cuall type 1
96 atoms in group Cuall
group fixedCu region fixedlayer
32 atoms in group fixedCu
group mobileCu subtract Cuall fixedCu
64 atoms in group mobileCu

# == Fix layers in the middle of the slab ==
fix fissoCubott fixedCu setforce 0 0 0
velocity fixedCu set 0 0 0

# == Define surface layers ==

variable z_surface_inf_low equal 9.0 # A
variable z_surface_inf_high equal 10.6 # A
region surface_inf block  INF INF INF INF ${z_surface_inf_low} ${z_surface_inf_high}
region surface_inf block  INF INF INF INF 9 ${z_surface_inf_high}
region surface_inf block  INF INF INF INF 9 10.6
group surf_inf_Cu region surface_inf
16 atoms in group surf_inf_Cu

variable z_surface_sup_low equal 19.8 # A
variable z_surface_sup_high equal 21.0 # A
region surface_sup block  INF INF INF INF ${z_surface_sup_low} ${z_surface_sup_high}
region surface_sup block  INF INF INF INF 19.8 ${z_surface_sup_high}
region surface_sup block  INF INF INF INF 19.8 21
group surf_sup_Cu region surface_sup
16 atoms in group surf_sup_Cu

# == Define Pair Style ==

pair_style mace no_domain_decomposition
pair_coeff * * Franken_Cu_H2O_m2_RF_1024-lammps.pt Cu H O

# == Define NVT thermostat ==

velocity mobileCu create ${temp_Cu_mobile} ${seed1} mom yes rot yes
velocity mobileCu create 310 ${seed1} mom yes rot yes
velocity mobileCu create 310 256982574 mom yes rot yes
fix NVT_Cu mobileCu nvt temp ${temp_Cu_mobile} ${temp_Cu_mobile} $(100.0*dt)
fix NVT_Cu mobileCu nvt temp 310 ${temp_Cu_mobile} $(100.0*dt)
fix NVT_Cu mobileCu nvt temp 310 310 $(100.0*dt)
fix NVT_Cu mobileCu nvt temp 310 310 0.10000000000000000555

velocity  H2O create ${temp_water} ${seed2}
velocity  H2O create 330 ${seed2}
velocity  H2O create 330 1008705
fix NVT_H2O H2O nvt temp ${temp_water} ${temp_water} $(100.0*dt)
fix NVT_H2O H2O nvt temp 330 ${temp_water} $(100.0*dt)
fix NVT_H2O H2O nvt temp 330 330 $(100.0*dt)
fix NVT_H2O H2O nvt temp 330 330 0.10000000000000000555

# == Compute and Visualization ==

thermo          ${stride}
thermo          1000
thermo_style    custom step pe ke etotal temp press vol
thermo_modify	flush yes
fix 		thermo_print all print ${stride} "$(step) $(pe) $(ke) $(etotal) $(temp) $(press) $(vol)" append thermo.out screen no title "#step pe ke etotal temp press vol"
fix 		thermo_print all print 1000 "$(step) $(pe) $(ke) $(etotal) $(temp) $(press) $(vol)" append thermo.out screen no title "#step pe ke etotal temp press vol"

compute Tmobile mobileCu temp
compute Tsurface_inf surf_inf_Cu temp
compute Tsurface_sup surf_sup_Cu temp
compute Twater H2O temp
compute Tall all temp
compute Press all pressure Tall

fix myat1 mobileCu ave/time 1 1 100 c_Tmobile file temperature_mobile.dat
fix myat2 surf_inf_Cu ave/time 1 1 100 c_Tsurface_inf file temperature_surf_inf.dat
fix myat3 surf_sup_Cu ave/time 1 1 100 c_Tsurface_sup file temperature_surf_sup.dat
fix myat4 H2O ave/time 1 1 100 c_Twater file temperature_water.dat
fix myat5 all ave/time 1 1 100 c_Press[3]  file pressure_all.dat

dump		viewNVT all custom ${stride} Cu_H2O_NVT_m2.dump id type element x y z fx fy fz
dump		viewNVT all custom 1000 Cu_H2O_NVT_m2.dump id type element x y z fx fy fz
dump_modify	viewNVT sort id append yes element Cu H O

# == RUN  NVT ==

timestep ${tstep}
timestep 0.0005
run		${nsteps}
run		2000000
Generated 0 of 3 mixed pair_coeff terms from geometric mixing rule
Neighbor list info ...
  update: every = 1 steps, delay = 0 steps, check = yes
  max neighbors/atom: 2000, page size: 100000
  master list distance cutoff = 14
  ghost atom cutoff = 14
  binsize = 14, bins = 1 1 3
  1 neighbor lists, perpetual/occasional/extra = 1 0 0
  (1) pair mace/kk, perpetual
      attributes: full, newton on, kokkos_device
      pair build: full/bin/kk/device
      stencil: full/bin/3d
      bin: kk/device
Per MPI rank memory allocation (min/avg/max) = 4.832 | 4.832 | 4.832 Mbytes
   Step         PotEng         KinEng         TotEng          Temp          Press          Volume    
         0  -1811.6419      8.880172      -1802.7617      280.40816      3534.9742      2683.2073    
      1000  -1812.5682      8.5744451     -1803.9937      270.75426      3413.272       2683.2073    
      2000  -1813.1024      8.3302614     -1804.7721      263.0437       3316.0685      2683.2073    
      3000  -1813.5551      8.6353892     -1804.9197      272.67869      3437.5323      2683.2073    
      4000  -1812.101       9.078174      -1803.0228      286.66045      3613.7939      2683.2073    
      5000  -1811.4614      8.9714743     -1802.4899      283.29121      3571.3193      2683.2073    
      6000  -1812.9765      8.105423      -1804.8711      255.94401      3226.566       2683.2073    
      7000  -1813.3382      7.534652      -1805.8035      237.92083      2999.3563      2683.2073    
      8000  -1813.3369      10.119544     -1803.2174      319.54368      4028.3373      2683.2073    
      9000  -1813.8345      9.7195727     -1804.115       306.91382      3869.1186      2683.2073    
     10000  -1812.8176      8.5995859     -1804.218       271.54813      3423.2799      2683.2073    
     11000  -1813.0719      8.4246849     -1804.6472      266.0253       3353.6562      2683.2073    
     12000  -1813.1174      8.6232601     -1804.4941      272.29569      3432.704       2683.2073    
     13000  -1813.2155      9.3101203     -1803.9054      293.98459      3706.1258      2683.2073    
     14000  -1814.0189      8.5889887     -1805.43        271.2135       3419.0614      2683.2073    
     15000  -1813.0323      8.4388936     -1804.5934      266.47397      3359.3123      2683.2073    
     16000  -1813.571       8.877453      -1804.6936      280.32231      3533.8918      2683.2073    
     17000  -1813.2319      8.3792153     -1804.8527      264.58951      3335.5559      2683.2073    
     18000  -1813.3973      9.2219163     -1804.1753      291.19938      3671.014       2683.2073    
     19000  -1813.5192      8.9972942     -1804.5219      284.10652      3581.5976      2683.2073    
     20000  -1813.9088      9.8611162     -1804.0477      311.38333      3925.4635      2683.2073    
     21000  -1811.3407      8.9079967     -1802.4327      281.28678      3546.0505      2683.2073    
     22000  -1812.281       8.6698666     -1803.6112      273.76738      3451.2569      2683.2073    
     23000  -1813.9399      9.1981488     -1804.7418      290.44888      3661.5528      2683.2073    
     24000  -1812.62        9.2083886     -1803.4116      290.77222      3665.629       2683.2073    
     25000  -1814.1597      9.0346821     -1805.1251      285.28711      3596.4808      2683.2073    
     26000  -1813.6878      8.9088354     -1804.779       281.31326      3546.3844      2683.2073    
     27000  -1812.8411      8.5883362     -1804.2527      271.1929       3418.8017      2683.2073    
     28000  -1814.2697      8.8225001     -1805.4472      278.58707      3512.0165      2683.2073    
     29000  -1813.399       8.7265478     -1804.6725      275.55719      3473.8202      2683.2073    
     30000  -1812.4162      8.4030315     -1804.0132      265.34155      3345.0365      2683.2073    
     31000  -1813.0091      8.4200242     -1804.5891      265.87813      3351.8009      2683.2073    
     32000  -1813.2901      8.577446      -1804.7127      270.84902      3414.4665      2683.2073    
     33000  -1813.8497      8.0622419     -1805.7874      254.58048      3209.3767      2683.2073    
     34000  -1812.3662      8.2689533     -1804.0972      261.10778      3291.6633      2683.2073    
     35000  -1813.0518      9.9636257     -1803.0882      314.62026      3966.27        2683.2073    
     36000  -1812.1745      8.4741161     -1803.7004      267.58618      3373.3335      2683.2073    
     37000  -1813.7059      8.8485886     -1804.8573      279.41086      3522.4016      2683.2073    
     38000  -1814.27        9.3734851     -1804.8965      295.98546      3731.3498      2683.2073    
     39000  -1812.7589      9.2760383     -1803.4828      292.90839      3692.5587      2683.2073    
     40000  -1813.0582      9.5308369     -1803.5273      300.95413      3793.9876      2683.2073    
     41000  -1813.2153      8.8059444     -1804.4094      278.06429      3505.4261      2683.2073    
     42000  -1812.9198      8.6509782     -1804.2688      273.17094      3443.7379      2683.2073    
     43000  -1813.0474      8.2235739     -1804.8238      259.67484      3273.5989      2683.2073    
     44000  -1813.5635      9.0049934     -1804.5585      284.34964      3584.6625      2683.2073    
     45000  -1813.6917      8.9784839     -1804.7132      283.51255      3574.1097      2683.2073    
     46000  -1812.4913      8.9486529     -1803.5426      282.57058      3562.2347      2683.2073    
     47000  -1813.0953      9.3884972     -1803.7068      296.45949      3737.3257      2683.2073    
     48000  -1813.9577      8.4413233     -1805.5164      266.55069      3360.2795      2683.2073    
     49000  -1812.5681      8.4672783     -1804.1008      267.37027      3370.6115      2683.2073    
     50000  -1813.1387      8.733284      -1804.4054      275.7699       3476.5018      2683.2073    
     51000  -1813.0022      7.9289159     -1805.0733      250.37046      3156.303       2683.2073    
     52000  -1813.3451      9.0468251     -1804.2983      285.67055      3601.3146      2683.2073    
     53000  -1812.874       9.6028524     -1803.2711      303.22816      3822.6552      2683.2073    
     54000  -1813.5235      9.0831902     -1804.4403      286.81885      3615.7907      2683.2073    
     55000  -1813.5713      8.4998635     -1805.0714      268.39921      3383.5829      2683.2073    
     56000  -1813.1364      8.6296083     -1804.5068      272.49614      3435.2311      2683.2073    
     57000  -1812.8279      8.6104385     -1804.2175      271.89082      3427.6         2683.2073    
     58000  -1814.0451      8.6598599     -1805.3853      273.4514       3447.2735      2683.2073    
     59000  -1812.4255      8.5233877     -1803.9021      269.14203      3392.9473      2683.2073    
     60000  -1812.3935      8.7749445     -1803.6186      277.08541      3493.0858      2683.2073    
     61000  -1813.3909      9.8286041     -1803.5623      310.35669      3912.5213      2683.2073    
     62000  -1813.2314      8.7816433     -1804.4497      277.29693      3495.7524      2683.2073    
     63000  -1813.896       8.9138698     -1804.9821      281.47223      3548.3884      2683.2073    
     64000  -1812.6882      8.9000907     -1803.7881      281.03713      3542.9033      2683.2073    
     65000  -1813.4739      9.2621745     -1804.2117      292.47061      3687.0398      2683.2073    
     66000  -1813.1801      8.4478628     -1804.7322      266.75719      3362.8827      2683.2073    
     67000  -1812.189       8.7515539     -1803.4375      276.34681      3483.7746      2683.2073    
     68000  -1812.2825      8.754328      -1803.5282      276.4344       3484.8789      2683.2073    
     69000  -1811.975       7.861879      -1804.1131      248.25364      3129.6172      2683.2073    
     70000  -1813.233       7.4322204     -1805.8008      234.68636      2958.5809      2683.2073    
     71000  -1813.6106      8.4297158     -1805.1809      266.18416      3355.6588      2683.2073    
     72000  -1811.9268      8.7893085     -1803.1375      277.53898      3498.8037      2683.2073    
     73000  -1812.1287      8.9763532     -1803.1524      283.44527      3573.2615      2683.2073    
     74000  -1812.9349      9.2857309     -1803.6491      293.21445      3696.417       2683.2073    
     75000  -1813.3011      9.9564699     -1803.3446      314.3943       3963.4214      2683.2073    
     76000  -1812.6164      8.4506596     -1804.1657      266.8455       3363.9961      2683.2073    
     77000  -1813.3915      9.2902308     -1804.1012      293.35654      3698.2083      2683.2073    
     78000  -1811.942       8.8761169     -1803.0659      280.28012      3533.36        2683.2073    
     79000  -1812.6799      8.6821435     -1803.9978      274.15504      3456.144       2683.2073    
     80000  -1811.4145      8.6346599     -1802.7798      272.65566      3437.242       2683.2073    
     81000  -1812.1603      8.559808      -1803.6005      270.29207      3407.4453      2683.2073    
     82000  -1813.0027      9.8756652     -1803.127       311.84274      3931.2551      2683.2073    
     83000  -1812.7076      8.6752489     -1804.0323      273.93733      3453.3994      2683.2073    
     84000  -1812.9109      9.0215215     -1803.8894      284.87154      3591.2419      2683.2073    
     85000  -1812.2529      9.2359613     -1803.017       291.64288      3676.605       2683.2073    
     86000  -1812.4468      8.8056662     -1803.6412      278.0555       3505.3153      2683.2073    
     87000  -1812.155       8.1089639     -1804.046       256.05582      3227.9756      2683.2073    
     88000  -1812.2465      9.1090491     -1803.1375      287.63539      3626.0845      2683.2073    
     89000  -1812.6874      8.6032785     -1804.0841      271.66473      3424.7498      2683.2073    
     90000  -1813.7441      9.4416719     -1804.3025      298.13858      3758.4932      2683.2073    
     91000  -1812.8819      9.1786074     -1803.7033      289.83182      3653.7738      2683.2073    
     92000  -1812.7346      9.0298741     -1803.7047      285.13529      3594.5669      2683.2073    
     93000  -1813.1336      8.6883537     -1804.4453      274.35114      3458.6161      2683.2073    
     94000  -1812.7414      8.8060432     -1803.9354      278.06741      3505.4654      2683.2073    
     95000  -1813.1227      8.7748025     -1804.3479      277.08092      3493.0292      2683.2073    
     96000  -1813.2156      9.8720766     -1803.3435      311.72942      3929.8266      2683.2073    
     97000  -1812.6864      9.6352869     -1803.0511      304.25234      3835.5665      2683.2073    
     98000  -1813.0197      7.9808087     -1805.0388      252.00907      3176.9602      2683.2073    
     99000  -1813.393       9.7567995     -1803.6362      308.08933      3883.9377      2683.2073    
    100000  -1813.477       9.375999      -1804.101       296.06484      3732.3505      2683.2073    
    101000  -1811.7263      9.0475097     -1802.6788      285.69217      3601.5871      2683.2073    
    102000  -1813.0671      8.2225562     -1804.8446      259.64271      3273.1938      2683.2073    
    103000  -1813.0313      9.0503616     -1803.981       285.78222      3602.7224      2683.2073    
    104000  -1813.3129      8.8794708     -1804.4335      280.38602      3534.6951      2683.2073    
    105000  -1813.1789      8.8631525     -1804.3157      279.87074      3528.1992      2683.2073    
    106000  -1811.979       9.9034111     -1802.0756      312.71887      3942.3001      2683.2073    
    107000  -1812.0099      9.0183295     -1802.9915      284.77075      3589.9712      2683.2073    
    108000  -1813.5466      9.7932594     -1803.7534      309.24062      3898.4515      2683.2073    
    109000  -1811.4891      8.2763203     -1803.2128      261.34041      3294.5959      2683.2073    
    110000  -1812.3415      9.15622       -1803.1853      289.1249       3644.862       2683.2073    
    111000  -1814.0195      8.698747      -1805.3207      274.67933      3462.7534      2683.2073    
    112000  -1813.6572      9.3232663     -1804.3339      294.3997       3711.3589      2683.2073    
    113000  -1812.958       9.0647617     -1803.8932      286.23693      3608.4547      2683.2073    
    114000  -1813.057       8.8557248     -1804.2012      279.6362       3525.2424      2683.2073    
    115000  -1812.1765      8.5870547     -1803.5895      271.15243      3418.2915      2683.2073    
    116000  -1812.8568      8.1340501     -1804.7227      256.84796      3237.9617      2683.2073    
    117000  -1812.2113      8.5204341     -1803.6908      269.04876      3391.7715      2683.2073    
    118000  -1812.604       9.1378138     -1803.4662      288.54369      3637.535       2683.2073    
    119000  -1812.0058      9.1336718     -1802.8721      288.4129       3635.8861      2683.2073    
    120000  -1813.9895      8.2668074     -1805.7227      261.04002      3290.8091      2683.2073    
    121000  -1813.9913      9.525581      -1804.4658      300.78817      3791.8954      2683.2073    
    122000  -1813.2264      9.4448675     -1803.7815      298.23949      3759.7653      2683.2073    
    123000  -1813.1848      9.8339377     -1803.3508      310.52512      3914.6445      2683.2073    
    124000  -1812.254       8.9672533     -1803.2867      283.15792      3569.6391      2683.2073    
    125000  -1812.7002      8.4552928     -1804.2449      266.9918       3365.8404      2683.2073    
    126000  -1814.0383      8.96985       -1805.0685      283.23992      3570.6728      2683.2073    
    127000  -1813.8152      8.6485514     -1805.1666      273.09431      3442.7718      2683.2073    
    128000  -1812.3894      8.043931      -1804.3455      254.00228      3202.0876      2683.2073    
    129000  -1814.4069      9.3530499     -1805.0538      295.34017      3723.215       2683.2073    
    130000  -1813.2227      9.1145199     -1804.1082      287.80814      3628.2622      2683.2073    
    131000  -1813.2755      8.5783871     -1804.6971      270.87874      3414.8412      2683.2073    
    132000  -1813.5746      8.4810378     -1805.0935      267.80475      3376.0889      2683.2073    
    133000  -1813.1699      9.6283816     -1803.5415      304.03429      3832.8177      2683.2073    
    134000  -1813.7363      8.9057132     -1804.8305      281.21468      3545.1415      2683.2073    
    135000  -1812.926       8.0771161     -1804.8489      255.05016      3215.2978      2683.2073    
    136000  -1813.2673      8.0599876     -1805.2073      254.5093       3208.4793      2683.2073    
    137000  -1813.8433      8.8230363     -1805.0203      278.604        3512.2299      2683.2073    
    138000  -1813.1242      9.390639      -1803.7335      296.52712      3738.1783      2683.2073    
    139000  -1812.347       9.6467191     -1802.7002      304.61333      3840.1174      2683.2073    
    140000  -1813.486       8.4186286     -1805.0674      265.83406      3351.2453      2683.2073    
    141000  -1812.7693      8.1717039     -1804.5976      258.03695      3252.9508      2683.2073    
    142000  -1813.2867      9.1497832     -1804.137       288.92165      3642.2997      2683.2073    
    143000  -1812.7308      8.1973664     -1804.5335      258.84729      3263.1664      2683.2073    
    144000  -1812.0183      8.1808337     -1803.8375      258.32524      3256.5851      2683.2073    
    145000  -1812.6183      8.8509176     -1803.7674      279.4844       3523.3287      2683.2073    
    146000  -1812.4932      9.1924638     -1803.3007      290.26937      3659.2897      2683.2073    
    147000  -1811.598       8.7733634     -1802.8247      277.03548      3492.4564      2683.2073    
    148000  -1812.065       8.9715435     -1803.0935      283.29339      3571.3469      2683.2073    
    149000  -1812.8432      9.1765958     -1803.6666      289.76831      3652.9731      2683.2073    
    150000  -1813.2081      8.1201091     -1805.088       256.40775      3232.4122      2683.2073    
    151000  -1812.4678      8.7308276     -1803.737       275.69233      3475.5239      2683.2073    
    152000  -1813.1449      9.0049754     -1804.1399      284.34907      3584.6553      2683.2073    
    153000  -1812.4561      8.9618308     -1803.4942      282.98669      3567.4805      2683.2073    
    154000  -1813.152       9.8197133     -1803.3323      310.07595      3908.9821      2683.2073    
    155000  -1812.5592      8.8792448     -1803.6799      280.37889      3534.6051      2683.2073    
    156000  -1813.4224      8.8956192     -1804.5267      280.89594      3541.1233      2683.2073    
    157000  -1813.4811      8.8418483     -1804.6392      279.19802      3519.7185      2683.2073    
    158000  -1812.9556      8.0697871     -1804.8858      254.81873      3212.3803      2683.2073    
    159000  -1812.0527      8.5654452     -1803.4873      270.47007      3409.6893      2683.2073    
    160000  -1812.7622      8.6114043     -1804.1507      271.92132      3427.9845      2683.2073    
    161000  -1812.8476      9.2282865     -1803.6194      291.40053      3673.5498      2683.2073    
    162000  -1813.1339      8.1648641     -1804.969       257.82097      3250.228       2683.2073    
    163000  -1812.9762      8.0252212     -1804.951       253.41148      3194.6397      2683.2073    
    164000  -1813.3037      9.3353208     -1803.9684      294.78035      3716.1575      2683.2073    
    165000  -1812.7261      8.6550376     -1804.0711      273.29912      3445.3538      2683.2073    
    166000  -1812.3525      9.9444714     -1802.4081      314.01542      3958.6451      2683.2073    
    167000  -1813.6013      7.4952337     -1806.1061      236.67613      2983.6649      2683.2073    
    168000  -1812.5547      8.8569522     -1803.6977      279.67495      3525.731       2683.2073    
    169000  -1813.8421      10.05177      -1803.7903      317.40359      4001.3582      2683.2073    
    170000  -1813.1761      8.5000294     -1804.676       268.40445      3383.649       2683.2073    
    171000  -1812.9848      8.6410001     -1804.3438      272.85586      3439.7659      2683.2073    
    172000  -1813.1842      7.4808264     -1805.7034      236.22119      2977.9298      2683.2073    
    173000  -1813.514       9.1398212     -1804.3741      288.60708      3638.334       2683.2073    
    174000  -1813.3932      8.8763957     -1804.5168      280.28892      3533.471       2683.2073    
    175000  -1812.7739      9.9738318     -1802.8         314.94253      3970.3328      2683.2073    
    176000  -1813.9259      9.6694744     -1804.2565      305.33187      3849.1757      2683.2073    
    177000  -1812.5578      8.5489868     -1804.0088      269.95037      3403.1376      2683.2073    
    178000  -1813.6954      8.8487138     -1804.8467      279.41481      3522.4515      2683.2073    
    179000  -1812.7105      8.6618218     -1804.0487      273.51334      3448.0544      2683.2073    
    180000  -1812.6353      8.7816533     -1803.8537      277.29725      3495.7564      2683.2073    
    181000  -1814.0471      9.0821677     -1804.9649      286.78656      3615.3836      2683.2073    
    182000  -1813.8245      8.9771199     -1804.8474      283.46948      3573.5667      2683.2073    
    183000  -1813.1779      8.6228594     -1804.555       272.28303      3432.5445      2683.2073    
    184000  -1813.0596      8.3808723     -1804.6787      264.64184      3336.2155      2683.2073    
    185000  -1813.6017      8.7156005     -1804.8861      275.21151      3469.4624      2683.2073    
    186000  -1812.3671      8.0290425     -1804.338       253.53215      3196.1608      2683.2073    
    187000  -1813.3217      8.4749677     -1804.8468      267.61308      3373.6725      2683.2073    
    188000  -1812.9023      8.7704586     -1804.1319      276.94376      3491.3001      2683.2073    
    189000  -1812.548       8.4332077     -1804.1148      266.29443      3357.0489      2683.2073    
    190000  -1813.3715      9.0219109     -1804.3496      284.88384      3591.3969      2683.2073    
    191000  -1813.3553      8.2218645     -1805.1335      259.62086      3272.9185      2683.2073    
    192000  -1812.4972      8.31125       -1804.1859      262.44338      3308.5006      2683.2073    
    193000  -1814.0378      8.7732544     -1805.2646      277.03204      3492.413       2683.2073    
    194000  -1813.0533      8.2433979     -1804.8099      260.30082      3281.4904      2683.2073    
    195000  -1812.3497      7.947963      -1804.4017      250.97191      3163.8851      2683.2073    
    196000  -1812.1987      8.7679627     -1803.4307      276.86494      3490.3065      2683.2073    
    197000  -1812.1561      8.49977       -1803.6563      268.39625      3383.5457      2683.2073    
    198000  -1812.1327      8.3189228     -1803.8138      262.68566      3311.5549      2683.2073    
    199000  -1813.268       8.0669702     -1805.201       254.72978      3211.2589      2683.2073    
    200000  -1812.8017      8.2280038     -1804.5737      259.81472      3275.3624      2683.2073    
    201000  -1812.3399      9.8208489     -1802.519       310.11181      3909.4341      2683.2073    
    202000  -1813.1152      8.8641229     -1804.2511      279.90139      3528.5855      2683.2073    
    203000  -1812.6221      8.7347874     -1803.8873      275.81737      3477.1002      2683.2073    
    204000  -1813.2211      8.0541271     -1805.167       254.32424      3206.1464      2683.2073    
    205000  -1813.26        9.1086319     -1804.1514      287.62221      3625.9183      2683.2073    
    206000  -1812.9342      8.3567349     -1804.5775      263.87965      3326.607       2683.2073    
    207000  -1811.275       8.7098662     -1802.5651      275.03044      3467.1797      2683.2073    
    208000  -1812.882       8.7842534     -1804.0977      277.37935      3496.7914      2683.2073    
    209000  -1812.7391      8.7596251     -1803.9794      276.60167      3486.9875      2683.2073    
    210000  -1812.059       9.1556115     -1802.9034      289.10569      3644.6198      2683.2073    
    211000  -1812.4372      8.2894711     -1804.1477      261.75567      3299.8309      2683.2073    
    212000  -1812.5886      9.0682435     -1803.5204      286.34688      3609.8407      2683.2073    
    213000  -1813.2593      9.0882035     -1804.1711      286.97715      3617.7863      2683.2073    
    214000  -1811.6025      9.0859627     -1802.5166      286.90639      3616.8943      2683.2073    
    215000  -1813.0502      8.7844715     -1804.2657      277.38624      3496.8782      2683.2073    
    216000  -1812.88        8.8430774     -1804.0369      279.23683      3520.2078      2683.2073    
    217000  -1812.8565      8.3583574     -1804.4981      263.93089      3327.2529      2683.2073    
    218000  -1814.0658      8.1976359     -1805.8681      258.8558       3263.2737      2683.2073    
    219000  -1813.0236      9.5412435     -1803.4823      301.28274      3798.1302      2683.2073    
    220000  -1812.9728      8.3331963     -1804.6396      263.13638      3317.2369      2683.2073    
    221000  -1813.4953      8.6664935     -1804.8288      273.66086      3449.9141      2683.2073    
    222000  -1812.8895      7.962565      -1804.9269      251.43299      3169.6978      2683.2073    
    223000  -1814.2248      8.7540971     -1805.4707      276.42711      3484.787       2683.2073    
    224000  -1813.1147      8.9053014     -1804.2094      281.20167      3544.9776      2683.2073    
    225000  -1813.7123      9.4009245     -1804.3114      296.85191      3742.2727      2683.2073    
    226000  -1812.7236      8.1441273     -1804.5795      257.16617      3241.9732      2683.2073    
    227000  -1812.6685      8.4891127     -1804.1794      268.05973      3379.3033      2683.2073    
    228000  -1813.5073      8.8688007     -1804.6385      280.04909      3530.4476      2683.2073    
    229000  -1814.0019      8.269981      -1805.7319      261.14024      3292.0724      2683.2073    
    230000  -1813.0824      9.3814049     -1803.701       296.23554      3734.5025      2683.2073    
    231000  -1812.0921      8.8326691     -1803.2595      278.90817      3516.0645      2683.2073    
    232000  -1813.0789      8.5793967     -1804.4995      270.91062      3415.2431      2683.2073    
    233000  -1813.1085      8.7468458     -1804.3616      276.19814      3481.9004      2683.2073    
    234000  -1813.2275      8.1842246     -1805.0433      258.43232      3257.935       2683.2073    
    235000  -1812.6288      9.2032866     -1803.4255      290.61112      3663.598       2683.2073    
    236000  -1813.3426      8.722422      -1804.6202      275.42691      3472.1779      2683.2073    
    237000  -1812.8479      8.8506556     -1803.9973      279.47613      3523.2244      2683.2073    
    238000  -1811.9087      8.5088615     -1803.3999      268.68334      3387.1648      2683.2073    
    239000  -1812.3091      9.6532475     -1802.6558      304.81948      3842.7162      2683.2073    
    240000  -1811.9258      9.2849834     -1802.6408      293.19085      3696.1195      2683.2073    
    241000  -1813.2992      9.7439036     -1803.5553      307.68212      3878.8041      2683.2073    
    242000  -1812.1587      9.2101102     -1802.9486      290.82659      3666.3143      2683.2073    
    243000  -1812.2885      9.5317625     -1802.7567      300.98336      3794.3561      2683.2073    
    244000  -1813.1439      8.4567852     -1804.6871      267.03893      3366.4345      2683.2073    
    245000  -1811.2955      8.2727031     -1803.0228      261.22619      3293.156       2683.2073    
    246000  -1813.4206      8.9594807     -1804.4611      282.91249      3566.545       2683.2073    
    247000  -1813.0793      8.3737972     -1804.7055      264.41843      3333.3991      2683.2073    
    248000  -1813.2156      8.4431548     -1804.7724      266.60852      3361.0086      2683.2073    
    249000  -1811.7474      8.3421791     -1803.4052      263.42003      3320.8127      2683.2073    
    250000  -1814.0623      9.707264      -1804.3551      306.52515      3864.2188      2683.2073    
    251000  -1811.522       9.4922822     -1802.0297      299.7367       3778.6399      2683.2073    
    252000  -1812.3318      9.8999568     -1802.4318      312.60979      3940.925       2683.2073    
    253000  -1813.5573      9.0523437     -1804.5049      285.84481      3603.5114      2683.2073    
    254000  -1812.6715      8.100669      -1804.5708      255.79389      3224.6736      2683.2073    
    255000  -1813.5288      8.4419069     -1805.0869      266.56912      3360.5118      2683.2073    
    256000  -1813.3747      8.9267691     -1804.4479      281.87956      3553.5234      2683.2073    
    257000  -1812.7174      8.1371392     -1804.5803      256.9455       3239.1914      2683.2073    
    258000  -1812.4943      8.9202245     -1803.5741      281.6729       3550.9181      2683.2073    
    259000  -1813.443       9.0754688     -1804.3675      286.57503      3612.717       2683.2073    
    260000  -1812.9679      9.3719036     -1803.596       295.93552      3730.7202      2683.2073    
    261000  -1812.9959      8.8553516     -1804.1406      279.62441      3525.0938      2683.2073    
    262000  -1813.1124      8.3789109     -1804.7335      264.5799       3335.4347      2683.2073    
    263000  -1812.2183      9.9578781     -1802.2604      314.43877      3963.982       2683.2073    
    264000  -1813.3972      8.4930199     -1804.9042      268.18311      3380.8587      2683.2073    
    265000  -1813.0789      8.9356763     -1804.1432      282.16082      3557.0691      2683.2073    
    266000  -1812.6564      8.3326127     -1804.3238      263.11795      3317.0046      2683.2073    
    267000  -1813.466       8.9186832     -1804.5473      281.62423      3550.3046      2683.2073    
    268000  -1812.2829      8.7967785     -1803.4861      277.77486      3501.7773      2683.2073    
    269000  -1813.2125      9.0843098     -1804.1282      286.8542       3616.2363      2683.2073    
    270000  -1812.8839      8.4750302     -1804.4088      267.61505      3373.6974      2683.2073    
    271000  -1812.7748      8.8655001     -1803.9093      279.94487      3529.1337      2683.2073    
    272000  -1812.7772      8.5621276     -1804.215       270.36531      3408.3687      2683.2073    
    273000  -1812.6625      9.1115897     -1803.5509      287.71561      3627.0958      2683.2073    
    274000  -1812.7442      9.3149379     -1803.4293      294.13672      3708.0436      2683.2073    
    275000  -1812.7848      9.1355232     -1803.6492      288.47136      3636.6231      2683.2073    
    276000  -1812.7351      9.0283834     -1803.7067      285.08822      3593.9735      2683.2073    
    277000  -1812.9474      9.2609805     -1803.6864      292.43291      3686.5645      2683.2073    
    278000  -1813.0282      8.257316      -1804.7708      260.74031      3287.0308      2683.2073    
    279000  -1812.5994      8.7013877     -1803.898       274.76271      3463.8046      2683.2073    
    280000  -1812.9696      9.2398411     -1803.7298      291.76539      3678.1495      2683.2073    
    281000  -1814.3802      9.9863743     -1804.3938      315.33859      3975.3256      2683.2073    
    282000  -1812.7212      8.8105016     -1803.9107      278.20819      3507.2401      2683.2073    
    283000  -1812.8861      8.9225166     -1803.9636      281.74528      3551.8305      2683.2073    
    284000  -1813.305       8.0987906     -1805.2062      255.73457      3223.9258      2683.2073    
    285000  -1812.9094      8.8324796     -1804.0769      278.90219      3515.9891      2683.2073    
    286000  -1813.0863      9.6571779     -1803.4291      304.94359      3844.2808      2683.2073    
    287000  -1812.9298      9.7809131     -1803.1489      308.85076      3893.5367      2683.2073    
    288000  -1812.7009      8.7955234     -1803.9054      277.73522      3501.2777      2683.2073    
    289000  -1813.1814      9.1215372     -1804.0598      288.02973      3631.0556      2683.2073    
    290000  -1811.41        9.8530401     -1801.557       311.12831      3922.2486      2683.2073    
    291000  -1812.8892      8.9393392     -1803.9499      282.27648      3558.5272      2683.2073    
    292000  -1812.6334      9.0477935     -1803.5856      285.70113      3601.7001      2683.2073    
    293000  -1812.316       8.910198      -1803.4058      281.35629      3546.9268      2683.2073    
    294000  -1812.9488      9.8901471     -1803.0586      312.30003      3937.02        2683.2073    
    295000  -1812.8796      8.7171251     -1804.1625      275.25965      3470.0693      2683.2073    
    296000  -1812.6322      8.821299      -1803.8109      278.54914      3511.5383      2683.2073    
    297000  -1812.5148      8.6853042     -1803.8295      274.25485      3457.4022      2683.2073    
    298000  -1812.5757      8.5320128     -1804.0437      269.41438      3396.3807      2683.2073    
    299000  -1812.7225      9.0390652     -1803.6835      285.42552      3598.2256      2683.2073    
    300000  -1812.5853      9.6317858     -1802.9536      304.14179      3834.1728      2683.2073    
    301000  -1813.5188      9.2988408     -1804.2199      293.62842      3701.6358      2683.2073    
    302000  -1812.1453      9.3557373     -1802.7896      295.42504      3724.2848      2683.2073    
    303000  -1812.4597      8.5451412     -1803.9146      269.82894      3401.6068      2683.2073    
    304000  -1813.0888      8.1804751     -1804.9083      258.31391      3256.4424      2683.2073    
    305000  -1813.6558      8.7855804     -1804.8703      277.42126      3497.3197      2683.2073    
    306000  -1811.656       9.2241997     -1802.4318      291.27149      3671.923       2683.2073    
    307000  -1812.0645      8.8687064     -1803.1958      280.04612      3530.41        2683.2073    
    308000  -1813.3525      9.239064      -1804.1135      291.74086      3677.8401      2683.2073    
    309000  -1813.0176      7.7134354     -1805.3042      243.56626      3070.5256      2683.2073    
    310000  -1813.5129      8.0675067     -1805.4454      254.74673      3211.4725      2683.2073    
    311000  -1812.2296      8.4180307     -1803.8116      265.81518      3351.0073      2683.2073    
    312000  -1812.764       9.5595762     -1803.2044      301.86163      3805.428       2683.2073    
    313000  -1813.011       8.8701279     -1804.1408      280.091        3530.9759      2683.2073    
    314000  -1813.2403      8.3843418     -1804.8559      264.75139      3337.5966      2683.2073    
    315000  -1811.4837      9.1325758     -1802.3511      288.37829      3635.4498      2683.2073    
    316000  -1812.7351      9.2785295     -1803.4566      292.98705      3693.5503      2683.2073    
    317000  -1812.6084      8.7040385     -1803.9043      274.84642      3464.8598      2683.2073    
    318000  -1813.1563      10.070765     -1803.0856      318.00339      4008.9195      2683.2073    
    319000  -1812.9182      8.4899729     -1804.4283      268.08689      3379.6457      2683.2073    
    320000  -1812.8308      8.2167839     -1804.614       259.46044      3270.896       2683.2073    
    321000  -1813.6588      8.4521204     -1805.2067      266.89163      3364.5776      2683.2073    
    322000  -1813.2525      9.2986316     -1803.9539      293.62181      3701.5525      2683.2073    
    323000  -1812.3668      8.4308746     -1803.936       266.22075      3356.1202      2683.2073    
    324000  -1812.5575      8.129742      -1804.4277      256.71192      3236.2468      2683.2073    
    325000  -1814.0877      9.5526688     -1804.535       301.64352      3802.6783      2683.2073    
    326000  -1812.6042      8.3269066     -1804.2773      262.93777      3314.7331      2683.2073    
    327000  -1813.0735      8.8941841     -1804.1793      280.85062      3540.552       2683.2073    
    328000  -1813.3687      7.3394129     -1806.0293      231.75579      2921.6366      2683.2073    
    329000  -1812.7414      9.3735325     -1803.3679      295.98695      3731.3687      2683.2073    
    330000  -1812.382       9.2390211     -1803.143       291.7395       3677.823       2683.2073    
    331000  -1812.1455      9.0312598     -1803.1142      285.17905      3595.1184      2683.2073    
    332000  -1811.3147      8.066151      -1803.2485      254.70392      3210.9328      2683.2073    
    333000  -1812.9705      9.2901514     -1803.6803      293.35404      3698.1767      2683.2073    
    334000  -1812.449       9.3010791     -1803.148       293.6991       3702.5268      2683.2073    
    335000  -1813.1165      9.4031132     -1803.7134      296.92102      3743.144       2683.2073    
    336000  -1812.9934      8.2722436     -1804.7211      261.21168      3292.9731      2683.2073    
    337000  -1813.7387      8.7477314     -1804.991       276.2261       3482.2529      2683.2073    
    338000  -1812.6813      8.8703384     -1803.811       280.09765      3531.0597      2683.2073    
    339000  -1813.1297      8.0789286     -1805.0508      255.10739      3216.0193      2683.2073    
    340000  -1813.255       9.3054784     -1803.9495      293.83802      3704.278       2683.2073    
    341000  -1814.0924      8.8428736     -1805.2496      279.2304       3520.1266      2683.2073    
    342000  -1812.1948      8.4846909     -1803.7101      267.9201       3377.5431      2683.2073    
    343000  -1812.4456      8.8027562     -1803.6429      277.96361      3504.1569      2683.2073    
    344000  -1813.3138      8.5813033     -1804.7325      270.97082      3416.0021      2683.2073    
    345000  -1812.8315      9.045229      -1803.7862      285.62015      3600.6793      2683.2073    
    346000  -1813.9967      9.4469255     -1804.5497      298.30447      3760.5846      2683.2073    
    347000  -1813.2623      8.4258826     -1804.8364      266.06312      3354.133       2683.2073    
    348000  -1812.073       9.2103601     -1802.8626      290.83448      3666.4138      2683.2073    
    349000  -1811.9197      9.69103       -1802.2287      306.01253      3857.7565      2683.2073    
    350000  -1811.5139      9.1001943     -1802.4137      287.35578      3622.5596      2683.2073    
    351000  -1812.6393      8.7394563     -1803.8999      275.9648       3478.9588      2683.2073    
    352000  -1812.3646      8.9511987     -1803.4134      282.65097      3563.2482      2683.2073    
    353000  -1813.5829      9.0918733     -1804.491       287.09303      3619.2472      2683.2073    
    354000  -1813.3843      9.3399508     -1804.0444      294.92655      3718.0006      2683.2073    
    355000  -1813.2899      8.7694601     -1804.5204      276.91223      3490.9026      2683.2073    
    356000  -1813.6428      8.6360683     -1805.0067      272.70013      3437.8026      2683.2073    
    357000  -1813.169       9.3384354     -1803.8305      294.8787       3717.3974      2683.2073    
    358000  -1813.216       9.0102988     -1804.2057      284.51716      3586.7744      2683.2073    
    359000  -1813.2553      9.0295181     -1804.2258      285.12405      3594.4251      2683.2073    
    360000  -1811.0228      9.5288892     -1801.4939      300.89263      3793.2123      2683.2073    
    361000  -1812.9738      8.238378      -1804.7355      260.14231      3279.4921      2683.2073    
    362000  -1812.6383      8.5276781     -1804.1106      269.27751      3394.6552      2683.2073    
    363000  -1812.6582      8.625578      -1804.0326      272.36888      3433.6267      2683.2073    
    364000  -1812.7006      9.307853      -1803.3927      293.913        3705.2233      2683.2073    
    365000  -1813.5603      8.5091657     -1805.0511      268.69294      3387.2859      2683.2073    
    366000  -1811.7601      8.1265228     -1803.6336      256.61027      3234.9653      2683.2073    
    367000  -1812.6426      10.263239     -1802.3794      324.0811       4085.5384      2683.2073    
    368000  -1813.1855      8.5119765     -1804.6735      268.7817       3388.4048      2683.2073    
    369000  -1812.8062      8.4098862     -1804.3963      265.558        3347.7652      2683.2073    
    370000  -1811.2916      9.2796697     -1802.0119      293.02306      3694.0042      2683.2073    
    371000  -1812.8274      9.1816061     -1803.6458      289.92651      3654.9676      2683.2073    
    372000  -1813.8506      9.5757257     -1804.2749      302.37158      3811.8567      2683.2073    
    373000  -1812.9502      9.0485115     -1803.9017      285.7238       3601.9859      2683.2073    
    374000  -1813.0064      8.7142584     -1804.2921      275.16913      3468.9281      2683.2073    
    375000  -1813.3707      9.2023412     -1804.1684      290.58126      3663.2217      2683.2073    
    376000  -1813.0483      8.843172      -1804.2052      279.23982      3520.2454      2683.2073    
    377000  -1812.9562      9.5320831     -1803.4242      300.99349      3794.4837      2683.2073    
    378000  -1812.813       8.4764321     -1804.3366      267.65932      3374.2554      2683.2073    
    379000  -1813.4997      8.3825628     -1805.1172      264.69522      3336.8884      2683.2073    
    380000  -1812.4808      9.9558536     -1802.5249      314.37484      3963.1761      2683.2073    
    381000  -1813.9587      9.1573557     -1804.8013      289.16076      3645.3141      2683.2073    
    382000  -1813.2745      9.4027266     -1803.8718      296.90881      3742.9901      2683.2073    
    383000  -1813.9605      8.2944069     -1805.666       261.91153      3301.7958      2683.2073    
    384000  -1812.7185      8.6220082     -1804.0965      272.25616      3432.2057      2683.2073    
    385000  -1813.4876      9.6432281     -1803.8444      304.5031       3838.7277      2683.2073    
    386000  -1812.471       8.7232024     -1803.7478      275.45156      3472.4885      2683.2073    
    387000  -1813.777       9.6301579     -1804.1469      304.09038      3833.5248      2683.2073    
    388000  -1812.6535      9.7572515     -1802.8963      308.1036       3884.1176      2683.2073    
    389000  -1813.5031      9.1465625     -1804.3565      288.81995      3641.0176      2683.2073    
    390000  -1814.0475      8.5988254     -1805.4487      271.52412      3422.9772      2683.2073    
    391000  -1813.0232      9.2429309     -1803.7802      291.86296      3679.3794      2683.2073    
    392000  -1812.8577      8.4972446     -1804.3605      268.31651      3382.5404      2683.2073    
    393000  -1812.5987      9.5897234     -1803.0089      302.81359      3817.4288      2683.2073    
    394000  -1813.2982      8.7991789     -1804.499       277.85065      3502.7329      2683.2073    
    395000  -1812.8499      8.9381688     -1803.9117      282.23952      3558.0613      2683.2073    
    396000  -1814.1614      8.5985318     -1805.5629      271.51485      3422.8603      2683.2073    
    397000  -1813.7894      9.0505915     -1804.7388      285.78948      3602.8139      2683.2073    
    398000  -1812.8763      8.902597      -1803.9737      281.11628      3543.901       2683.2073    
    399000  -1813.6383      9.3296366     -1804.3087      294.60086      3713.8948      2683.2073    
    400000  -1813.1377      9.0093843     -1804.1283      284.48829      3586.4104      2683.2073    
    401000  -1813.8294      7.7109337     -1806.1184      243.48726      3069.5297      2683.2073    
    402000  -1813.5992      8.7876147     -1804.8115      277.48549      3498.1294      2683.2073    
    403000  -1813.5195      8.8524995     -1804.667       279.53435      3523.9584      2683.2073    
    404000  -1813.0786      9.0971441     -1803.9815      287.25947      3621.3453      2683.2073    
    405000  -1813.429       9.3304213     -1804.0986      294.62563      3714.2072      2683.2073    
    406000  -1812.4936      8.6666923     -1803.8269      273.66714      3449.9933      2683.2073    
    407000  -1812.6025      9.0658463     -1803.5367      286.27118      3608.8865      2683.2073    
    408000  -1812.0894      9.1574956     -1802.9319      289.16518      3645.3698      2683.2073    
    409000  -1812.2441      8.7695119     -1803.4746      276.91386      3490.9232      2683.2073    
    410000  -1812.6175      8.690873      -1803.9267      274.43069      3459.619       2683.2073    
    411000  -1812.1954      9.5559931     -1802.6394      301.74849      3804.0017      2683.2073    
    412000  -1812.8732      8.7892389     -1804.084       277.53678      3498.776       2683.2073    
    413000  -1813.975       8.4482266     -1805.5267      266.76867      3363.0275      2683.2073    
    414000  -1812.6374      9.0111399     -1803.6263      284.54372      3587.1092      2683.2073    
    415000  -1813.6619      9.5890146     -1804.0729      302.7912       3817.1467      2683.2073    
    416000  -1813.1392      9.1980088     -1803.9412      290.44446      3661.4971      2683.2073    
    417000  -1813.8719      9.1767172     -1804.6952      289.77214      3653.0214      2683.2073    
    418000  -1813.4322      9.0993112     -1804.3329      287.3279       3622.208       2683.2073    
    419000  -1812.4825      9.892076      -1802.5904      312.36094      3937.7879      2683.2073    
    420000  -1812.9375      9.271736      -1803.6658      292.77254      3690.846       2683.2073    
    421000  -1812.8622      8.7138536     -1804.1483      275.15635      3468.767       2683.2073    
    422000  -1812.9628      8.751443      -1804.2113      276.3433       3483.7304      2683.2073    
    423000  -1812.5436      10.022951     -1802.5207      316.49357      3989.886       2683.2073    
    424000  -1811.6085      9.8562258     -1801.7523      311.2289       3923.5168      2683.2073    
    425000  -1812.3757      8.3487422     -1804.027       263.62727      3323.4253      2683.2073    
    426000  -1813.5503      9.1563537     -1804.3939      289.12912      3644.9152      2683.2073    
    427000  -1813.0701      8.9778417     -1804.0923      283.49227      3573.8541      2683.2073    
    428000  -1813.3312      8.6555785     -1804.6757      273.3162       3445.5692      2683.2073    
    429000  -1812.7487      8.487969      -1804.2607      268.02361      3378.848       2683.2073    
    430000  -1813.0134      8.3101614     -1804.7032      262.40901      3308.0672      2683.2073    
    431000  -1811.8908      8.1361118     -1803.7547      256.91306      3238.7824      2683.2073    
    432000  -1813.1568      7.8798186     -1805.277       248.82012      3136.7586      2683.2073    
    433000  -1813.0269      8.7574644     -1804.2694      276.53344      3486.1274      2683.2073    
    434000  -1812.3852      8.5410269     -1803.8441      269.69902      3399.969       2683.2073    
    435000  -1810.6479      8.9621534     -1801.6857      282.99688      3567.6089      2683.2073    
    436000  -1812.1587      9.5960394     -1802.5627      303.01303      3819.9431      2683.2073    
    437000  -1813.088       8.1600336     -1804.928       257.66844      3248.3051      2683.2073    
    438000  -1812.4978      8.3203279     -1804.1775      262.73003      3312.1143      2683.2073    
    439000  -1812.6725      8.6180517     -1804.0544      272.13122      3430.6307      2683.2073    
    440000  -1813.5318      8.9212038     -1804.6106      281.70382      3551.3079      2683.2073    
    441000  -1813.2895      9.2018946     -1804.0876      290.56716      3663.0439      2683.2073    
    442000  -1813.1452      9.4856226     -1803.6596      299.52641      3775.9889      2683.2073    
    443000  -1812.8242      9.1677415     -1803.6565      289.48871      3649.4484      2683.2073    
    444000  -1811.6971      8.7157048     -1802.9814      275.2148       3469.5039      2683.2073    
    445000  -1812.8338      9.1919178     -1803.6419      290.25213      3659.0724      2683.2073    
    446000  -1812.8417      9.3966495     -1803.445       296.71692      3740.571       2683.2073    
    447000  -1812.3847      8.3794018     -1804.0053      264.5954       3335.6301      2683.2073    
    448000  -1812.3198      8.1165145     -1804.2033      256.29424      3230.9813      2683.2073    
    449000  -1813.1265      8.0861351     -1805.0404      255.33495      3218.888       2683.2073    
    450000  -1812.8063      9.5863536     -1803.22        302.70718      3816.0874      2683.2073    
    451000  -1812.7698      9.5506277     -1803.2192      301.57907      3801.8658      2683.2073    
    452000  -1814.2092      8.6221676     -1805.587       272.26119      3432.2691      2683.2073    
    453000  -1813.1173      8.102718      -1805.0146      255.85859      3225.4892      2683.2073    
    454000  -1812.0022      9.4987451     -1802.5035      299.94078      3781.2127      2683.2073    
    455000  -1812.9373      9.76718       -1803.1701      308.41711      3888.0699      2683.2073    
    456000  -1814.1245      9.2719019     -1804.8526      292.77777      3690.9121      2683.2073    
    457000  -1813.8602      9.2414443     -1804.6187      291.81602      3678.7876      2683.2073    
    458000  -1814.1632      8.3713418     -1805.7918      264.34089      3332.4216      2683.2073    
    459000  -1814.4752      8.7896048     -1805.6856      277.54834      3498.9217      2683.2073    
    460000  -1813.0232      8.3823156     -1804.6409      264.68741      3336.79        2683.2073    
    461000  -1813.2254      8.4010501     -1804.8243      265.27899      3344.2478      2683.2073    
    462000  -1812.3632      8.7039598     -1803.6592      274.84393      3464.8285      2683.2073    
    463000  -1812.2082      8.6418995     -1803.5663      272.88426      3440.1239      2683.2073    
    464000  -1812.0004      8.2162657     -1803.7842      259.44407      3270.6897      2683.2073    
    465000  -1812.7744      9.1535092     -1803.6209      289.0393       3643.7829      2683.2073    
    466000  -1812.638       10.495341     -1802.1426      331.41017      4177.9326      2683.2073    
    467000  -1813.5888      8.5525568     -1805.0363      270.0631       3404.5588      2683.2073    
    468000  -1814.073       8.9300151     -1805.143       281.98205      3554.8155      2683.2073    
    469000  -1813.0834      9.3013496     -1803.7821      293.70764      3702.6345      2683.2073    
    470000  -1812.302       9.0226921     -1803.2794      284.9085       3591.7079      2683.2073    
    471000  -1813.1725      9.3926193     -1803.7798      296.58965      3738.9666      2683.2073    
    472000  -1813.8684      8.9150827     -1804.9534      281.51053      3548.8713      2683.2073    
    473000  -1813.4097      8.4425151     -1804.9672      266.58832      3360.7539      2683.2073    
    474000  -1813.1317      8.9320001     -1804.1997      282.04473      3555.6057      2683.2073    
    475000  -1814.0707      9.0300994     -1805.0406      285.1424       3594.6565      2683.2073    
    476000  -1813.1043      8.6712136     -1804.4331      273.80991      3451.7931      2683.2073    
    477000  -1814.7658      8.4499249     -1806.3158      266.8223       3363.7036      2683.2073    
    478000  -1812.4788      8.2184799     -1804.2604      259.51399      3271.5711      2683.2073    
    479000  -1812.2033      8.830286      -1803.373       278.83292      3515.1158      2683.2073    
    480000  -1812.4424      8.6317476     -1803.8107      272.5637       3436.0826      2683.2073    
    481000  -1812.4141      8.4887411     -1803.9254      268.048        3379.1553      2683.2073    
    482000  -1813.3079      8.4103681     -1804.8975      265.57322      3347.957       2683.2073    
    483000  -1812.6808      9.2308725     -1803.45        291.48219      3674.5793      2683.2073    
    484000  -1812.1273      9.621069      -1802.5062      303.80338      3829.9068      2683.2073    
    485000  -1813.2398      9.5940789     -1803.6457      302.95112      3819.1627      2683.2073    
    486000  -1812.8743      9.0106729     -1803.8636      284.52897      3586.9233      2683.2073    
    487000  -1812.6293      9.327227      -1803.3021      294.52477      3712.9356      2683.2073    
    488000  -1812.9849      7.8763339     -1805.1085      248.71009      3135.3714      2683.2073    
    489000  -1812.7224      8.9901533     -1803.7322      283.88103      3578.755       2683.2073    
    490000  -1813.0995      7.9589339     -1805.1405      251.31833      3168.2524      2683.2073    
    491000  -1812.7646      8.6456597     -1804.1189      273.003        3441.6207      2683.2073    
    492000  -1813.1686      8.3078166     -1804.8608      262.33496      3307.1338      2683.2073    
    493000  -1812.2203      8.18874       -1804.0316      258.5749       3259.7324      2683.2073    
    494000  -1812.4474      9.460535      -1802.9868      298.73422      3766.0022      2683.2073    
    495000  -1811.8299      8.6140856     -1803.2158      272.00599      3429.0519      2683.2073    
    496000  -1812.939       8.7240543     -1804.215       275.47845      3472.8276      2683.2073    
    497000  -1813.0308      8.4392668     -1804.5916      266.48575      3359.4609      2683.2073    
    498000  -1812.7982      8.8937492     -1803.9044      280.83689      3540.3789      2683.2073    
    499000  -1812.4169      9.3564845     -1803.0604      295.44863      3724.5823      2683.2073    
    500000  -1813.1687      8.9653285     -1804.2034      283.09714      3568.8729      2683.2073    
    501000  -1812.9765      8.7286401     -1804.2479      275.62326      3474.6532      2683.2073    
    502000  -1812.2565      9.3882757     -1802.8682      296.4525       3737.2375      2683.2073    
    503000  -1812.481       8.8644763     -1803.6165      279.91254      3528.7261      2683.2073    
    504000  -1813.3766      9.0683759     -1804.3082      286.35106      3609.8934      2683.2073    
    505000  -1812.8655      9.4944163     -1803.3711      299.80409      3779.4895      2683.2073    
    506000  -1811.9782      8.533172      -1803.445       269.45099      3396.8422      2683.2073    
    507000  -1812.774       8.5645774     -1804.2094      270.44267      3409.3439      2683.2073    
    508000  -1813.0861      10.571998     -1802.5141      333.83077      4208.4479      2683.2073    
    509000  -1812.6316      8.7082302     -1803.9234      274.97878      3466.5285      2683.2073    
    510000  -1813.026       8.5085475     -1804.5175      268.67342      3387.0398      2683.2073    
    511000  -1813.0161      10.006177     -1803.0099      315.9639       3983.2087      2683.2073    
    512000  -1812.7432      9.4795352     -1803.2637      299.33419      3773.5657      2683.2073    
    513000  -1811.712       8.7215203     -1802.9905      275.39844      3471.8189      2683.2073    
    514000  -1812.8738      8.483463      -1804.3903      267.88133      3377.0543      2683.2073    
    515000  -1811.7824      8.3200919     -1803.4624      262.72258      3312.0203      2683.2073    
    516000  -1812.6563      9.1422678     -1803.514       288.68433      3639.308       2683.2073    
    517000  -1811.056       8.8000893     -1802.2559      277.8794       3503.0953      2683.2073    
    518000  -1813.1587      9.5024051     -1803.6563      300.05635      3782.6696      2683.2073    
    519000  -1812.0834      9.4748629     -1802.6086      299.18665      3771.7058      2683.2073    
    520000  -1812.97        10.180235     -1802.7898      321.46012      4052.4969      2683.2073    
    521000  -1812.8387      9.8211002     -1803.0176      310.11975      3909.5342      2683.2073    
    522000  -1813.0022      8.9125946     -1804.0896      281.43197      3547.8808      2683.2073    
    523000  -1812.893       7.6122049     -1805.2808      240.36971      3030.2282      2683.2073    
    524000  -1813.9042      9.0269732     -1804.8773      285.04369      3593.4121      2683.2073    
    525000  -1811.9099      9.1875221     -1802.7224      290.11332      3657.3226      2683.2073    
    526000  -1811.5503      9.0506198     -1802.4997      285.79037      3602.8252      2683.2073    
    527000  -1813.4121      8.864895      -1804.5472      279.92577      3528.8928      2683.2073    
    528000  -1813.0199      8.7984249     -1804.2214      277.82685      3502.4327      2683.2073    
    529000  -1812.4634      8.8977479     -1803.5656      280.96316      3541.9707      2683.2073    
    530000  -1811.9396      9.1378197     -1802.8017      288.54388      3637.5373      2683.2073    
    531000  -1813.1743      8.7238226     -1804.4505      275.47114      3472.7354      2683.2073    
    532000  -1812.749       8.2940507     -1804.455       261.90028      3301.654       2683.2073    
    533000  -1813.445       8.9127348     -1804.5323      281.4364       3547.9367      2683.2073    
    534000  -1813.8297      8.7611964     -1805.0685      276.65128      3487.613       2683.2073    
    535000  -1812.7074      10.347568     -1802.3598      326.74397      4119.1079      2683.2073    
    536000  -1812.3226      8.5552369     -1803.7674      270.14773      3405.6257      2683.2073    
    537000  -1813.2314      8.6805905     -1804.5508      274.106        3455.5258      2683.2073    
    538000  -1813.0276      8.3565518     -1804.671       263.87387      3326.5341      2683.2073    
    539000  -1812.6391      8.1223167     -1804.5168      256.47746      3233.291       2683.2073    
    540000  -1813.2078      8.1447087     -1805.0631      257.18453      3242.2047      2683.2073    
    541000  -1812.8318      8.5519105     -1804.2798      270.04269      3404.3015      2683.2073    
    542000  -1814.204       8.4535915     -1805.7504      266.93808      3365.1632      2683.2073    
    543000  -1812.4838      9.0453945     -1803.4384      285.62538      3600.7451      2683.2073    
    544000  -1812.9991      9.4220763     -1803.5771      297.51981      3750.6927      2683.2073    
    545000  -1812.3888      7.8958333     -1804.4929      249.32581      3143.1336      2683.2073    
    546000  -1813.6248      8.5763097     -1805.0484      270.81314      3414.0142      2683.2073    
    547000  -1813.6185      8.760285      -1804.8582      276.62251      3487.2502      2683.2073    
    548000  -1812.5968      9.4413723     -1803.1554      298.12912      3758.374       2683.2073    
    549000  -1813.2687      8.2880003     -1804.9807      261.70923      3299.2455      2683.2073    
    550000  -1812.2092      8.0421709     -1804.167       253.9467       3201.387       2683.2073    
    551000  -1814.4023      8.3543538     -1806.048       263.80446      3325.6591      2683.2073    
    552000  -1813.0929      9.2454238     -1803.8475      291.94168      3680.3718      2683.2073    
    553000  -1812.166       8.0926232     -1804.0734      255.53983      3221.4707      2683.2073    
    554000  -1811.9067      8.4044234     -1803.5022      265.38551      3345.5906      2683.2073    
    555000  -1813.6157      8.3147804     -1805.301       262.55486      3309.906       2683.2073    
    556000  -1813.5973      8.7768148     -1804.8205      277.14446      3493.8303      2683.2073    
    557000  -1812.415       8.3906244     -1804.0243      264.94978      3340.0975      2683.2073    
    558000  -1813.0707      9.4817594     -1803.5889      299.40442      3774.4511      2683.2073    
    559000  -1811.7439      8.6309227     -1803.113       272.53765      3435.7543      2683.2073    
    560000  -1812.8163      9.0910687     -1803.7252      287.06763      3618.9269      2683.2073    
    561000  -1813.3844      8.1068315     -1805.2776      255.98848      3227.1267      2683.2073    
    562000  -1812.9139      8.4200814     -1804.4938      265.87994      3351.8237      2683.2073    
    563000  -1813.3593      8.5519691     -1804.8073      270.04454      3404.3248      2683.2073    
    564000  -1812.3039      7.8368331     -1804.467       247.46277      3119.6471      2683.2073    
    565000  -1813.1024      8.7101423     -1804.3922      275.03916      3467.2896      2683.2073    
    566000  -1813.2866      8.8384349     -1804.4482      279.09024      3518.3597      2683.2073    
    567000  -1812.9636      8.7984442     -1804.1651      277.82746      3502.4404      2683.2073    
    568000  -1812.6292      8.2661568     -1804.3631      261.01948      3290.5501      2683.2073    
    569000  -1812.6284      8.3516642     -1804.2767      263.71953      3324.5885      2683.2073    
    570000  -1812.8187      8.5557546     -1804.2629      270.16407      3405.8318      2683.2073    
    571000  -1813.1668      8.6219815     -1804.5448      272.25531      3432.195       2683.2073    
    572000  -1813.6657      9.2436021     -1804.4221      291.88416      3679.6466      2683.2073    
    573000  -1813.3452      8.8399581     -1804.5052      279.13833      3518.966       2683.2073    
    574000  -1812.6418      9.1769014     -1803.4649      289.77795      3653.0947      2683.2073    
    575000  -1812.6073      9.7323289     -1802.8749      307.31663      3874.1965      2683.2073    
    576000  -1812.648       8.7580775     -1803.8899      276.5528       3486.3714      2683.2073    
    577000  -1811.8269      9.2302731     -1802.5967      291.46327      3674.3407      2683.2073    
    578000  -1812.5781      9.5522022     -1803.0259      301.62878      3802.4926      2683.2073    
    579000  -1812.1457      9.3545048     -1802.7912      295.38612      3723.7942      2683.2073    
    580000  -1813.1549      9.5131405     -1803.6418      300.39534      3786.9431      2683.2073    
    581000  -1813.0574      8.7942065     -1804.2632      277.69364      3500.7535      2683.2073    
    582000  -1813.7387      8.6095399     -1805.1292      271.86245      3427.2423      2683.2073    
    583000  -1812.0187      9.4981769     -1802.5205      299.92283      3780.9865      2683.2073    
    584000  -1812.0178      7.9700507     -1804.0477      251.66937      3172.6777      2683.2073    
    585000  -1811.2991      8.5666026     -1802.7324      270.50662      3410.1501      2683.2073    
    586000  -1811.9398      9.3881341     -1802.5517      296.44802      3737.1812      2683.2073    
    587000  -1813.327       8.367137      -1804.9599      264.20812      3330.7478      2683.2073    
    588000  -1813.075       8.2712586     -1804.8037      261.18058      3292.581       2683.2073    
    589000  -1812.4317      9.0177583     -1803.414       284.75271      3589.7439      2683.2073    
    590000  -1811.9192      9.1373933     -1802.7818      288.53041      3637.3676      2683.2073    
    591000  -1812.8537      8.7335029     -1804.1202      275.77681      3476.5889      2683.2073    
    592000  -1813.2794      8.7185978     -1804.5608      275.30615      3470.6555      2683.2073    
    593000  -1813.5552      9.2315988     -1804.3236      291.50513      3674.8684      2683.2073    
    594000  -1812.665       10.109593     -1802.5554      319.22945      4024.376       2683.2073    
    595000  -1813.2418      9.143728      -1804.0981      288.73044      3639.8892      2683.2073    
    596000  -1813.4992      9.0420746     -1804.4572      285.52054      3599.4236      2683.2073    
    597000  -1812.3542      8.5070521     -1803.8471      268.6262       3386.4445      2683.2073    
    598000  -1812.2705      8.9995982     -1803.2709      284.17927      3582.5148      2683.2073    
    599000  -1812.6857      9.1982063     -1803.4875      290.4507       3661.5757      2683.2073    
    600000  -1811.7801      9.0174107     -1802.7627      284.74174      3589.6055      2683.2073    
    601000  -1812.7925      9.4560208     -1803.3364      298.59168      3764.2052      2683.2073    
    602000  -1813.5492      8.2499079     -1805.2992      260.50639      3284.0818      2683.2073    
    603000  -1812.2957      8.6757098     -1803.62        273.95189      3453.5829      2683.2073    
    604000  -1813.2396      8.2631698     -1804.9764      260.92516      3289.3611      2683.2073    
    605000  -1813.6079      8.7099005     -1804.898       275.03152      3467.1934      2683.2073    
    606000  -1813.3528      8.2147962     -1805.138       259.39767      3270.1047      2683.2073    
    607000  -1812.758       9.0563041     -1803.7017      285.96987      3605.088       2683.2073    
    608000  -1813.1239      9.5918872     -1803.532       302.88191      3818.2902      2683.2073    
    609000  -1813.4831      9.1360378     -1804.3471      288.48761      3636.8279      2683.2073    
    610000  -1814.0464      7.7195303     -1806.3269      243.75872      3072.9518      2683.2073    
    611000  -1814.1605      9.4437958     -1804.7167      298.20565      3759.3387      2683.2073    
    612000  -1812.3673      8.0841088     -1804.2832      255.27097      3218.0814      2683.2073    
    613000  -1814.2058      8.6435009     -1805.5623      272.93483      3440.7614      2683.2073    
    614000  -1814.4824      8.3349388     -1806.1475      263.1914       3317.9305      2683.2073    
    615000  -1814.5826      8.4197848     -1806.1629      265.87057      3351.7056      2683.2073    
    616000  -1812.862       8.9647611     -1803.8972      283.07923      3568.647       2683.2073    
    617000  -1812.6109      8.8389906     -1803.7719      279.10778      3518.5809      2683.2073    
    618000  -1813.5951      9.3664335     -1804.2286      295.76279      3728.5427      2683.2073    
    619000  -1813.8157      8.5850005     -1805.2307      271.08757      3417.4738      2683.2073    
    620000  -1812.6168      8.7109815     -1803.9058      275.06566      3467.6237      2683.2073    
    621000  -1813.5069      8.8994938     -1804.6074      281.01829      3542.6657      2683.2073    
    622000  -1812.5631      8.754748      -1803.8083      276.44766      3485.046       2683.2073    
    623000  -1813.98        8.4300003     -1805.55        266.19314      3355.7721      2683.2073    
    624000  -1813.7093      9.163724      -1804.5456      289.36185      3647.8492      2683.2073    
    625000  -1812.4071      9.350358      -1803.0567      295.25517      3722.1435      2683.2073    
    626000  -1812.2199      9.1185903     -1803.1013      287.93667      3629.8826      2683.2073    
    627000  -1813.098       8.9090562     -1804.1889      281.32024      3546.4723      2683.2073    
    628000  -1813.8531      8.8589384     -1804.9941      279.73767      3526.5216      2683.2073    
    629000  -1813.2243      8.2271341     -1804.9971      259.78726      3275.0162      2683.2073    
    630000  -1812.2884      9.0051141     -1803.2833      284.35345      3584.7105      2683.2073    
    631000  -1813.1301      9.2578801     -1803.8722      292.33501      3685.3303      2683.2073    
    632000  -1813.2968      9.0068794     -1804.2899      284.40919      3585.4132      2683.2073    
    633000  -1813.7454      8.8325545     -1804.9128      278.90455      3516.0189      2683.2073    
    634000  -1813.3754      9.4772343     -1803.8981      299.26153      3772.6497      2683.2073    
    635000  -1812.9685      8.9479485     -1804.0206      282.54834      3561.9543      2683.2073    
    636000  -1814.0453      8.9289582     -1805.1164      281.94868      3554.3947      2683.2073    
    637000  -1812.0875      9.1544355     -1802.933       289.06855      3644.1516      2683.2073    
    638000  -1812.5947      9.2224214     -1803.3722      291.21534      3671.2151      2683.2073    
    639000  -1813.3324      8.5254135     -1804.807       269.206        3393.7537      2683.2073    
    640000  -1813.0831      8.3408132     -1804.7423      263.37689      3320.269       2683.2073    
    641000  -1813.2788      8.2522338     -1805.0266      260.57983      3285.0077      2683.2073    
    642000  -1812.4092      8.8053425     -1803.6039      278.04528      3505.1864      2683.2073    
    643000  -1812.4259      8.9100025     -1803.5159      281.35012      3546.849       2683.2073    
    644000  -1812.9982      8.8728415     -1804.1253      280.17669      3532.0561      2683.2073    
    645000  -1813.663       9.0440584     -1804.6189      285.58319      3600.2133      2683.2073    
    646000  -1811.9539      8.310545      -1803.6433      262.42112      3308.2199      2683.2073    
    647000  -1811.9636      8.6483479     -1803.3152      273.08788      3442.6908      2683.2073    
    648000  -1812.4917      9.1032867     -1803.3885      287.45343      3623.7906      2683.2073    
    649000  -1813.1397      8.5821594     -1804.5575      270.99786      3416.3429      2683.2073    
    650000  -1814.6151      8.3602299     -1806.2549      263.99001      3327.9983      2683.2073    
    651000  -1812.2932      8.4934047     -1803.7997      268.19526      3381.0118      2683.2073    
    652000  -1813.1228      8.822498      -1804.3003      278.587        3512.0156      2683.2073    
    653000  -1812.5477      8.7988521     -1803.7489      277.84033      3502.6028      2683.2073    
    654000  -1812.4456      8.8466372     -1803.599       279.34924      3521.6248      2683.2073    
    655000  -1813.5678      9.2876723     -1804.2801      293.27576      3697.1899      2683.2073    
    656000  -1812.632       9.2084066     -1803.4236      290.77279      3665.6362      2683.2073    
    657000  -1813.5843      8.8279538     -1804.7563      278.75928      3514.1874      2683.2073    
    658000  -1813.5175      9.5060908     -1804.0114      300.17273      3784.1368      2683.2073    
    659000  -1812.5252      8.8280604     -1803.6972      278.76264      3514.2299      2683.2073    
    660000  -1812.5696      8.548891      -1804.0207      269.94734      3403.0995      2683.2073    
    661000  -1812.7046      8.9788619     -1803.7258      283.52448      3574.2602      2683.2073    
    662000  -1813.1047      8.9571039     -1804.1476      282.83743      3565.5989      2683.2073    
    663000  -1812.3413      8.3281135     -1804.0131      262.97588      3315.2135      2683.2073    
    664000  -1813.0851      8.5042322     -1804.5809      268.53716      3385.322       2683.2073    
    665000  -1811.9889      8.2721767     -1803.7168      261.20957      3292.9465      2683.2073    
    666000  -1813.948       8.3139935     -1805.634       262.53001      3309.5927      2683.2073    
    667000  -1812.5836      9.3371972     -1803.2465      294.8396       3716.9045      2683.2073    
    668000  -1812.5028      9.640835      -1802.8619      304.42753      3837.7751      2683.2073    
    669000  -1813.2047      9.8001277     -1803.4046      309.4575       3901.1855      2683.2073    
    670000  -1812.4221      9.2489646     -1803.1732      292.05349      3681.7813      2683.2073    
    671000  -1812.9604      9.8310013     -1803.1294      310.43239      3913.4755      2683.2073    
    672000  -1812.0009      8.4212901     -1803.5796      265.91811      3352.3048      2683.2073    
    673000  -1812.8199      9.3849734     -1803.435       296.34822      3735.923       2683.2073    
    674000  -1812.5116      9.5278122     -1802.9838      300.85863      3792.7836      2683.2073    
    675000  -1813.0482      8.567647      -1804.4806      270.5396       3410.5658      2683.2073    
    676000  -1813.612       9.0932895     -1804.5187      287.13775      3619.811       2683.2073    
    677000  -1813.3144      9.119205      -1804.1952      287.95608      3630.1273      2683.2073    
    678000  -1812.7777      8.7039087     -1804.0737      274.84232      3464.8082      2683.2073    
    679000  -1813.3991      9.2534471     -1804.1457      292.19503      3683.5656      2683.2073    
    680000  -1813.0307      8.6816836     -1804.349       274.14052      3455.9609      2683.2073    
    681000  -1813.8712      8.6742181     -1805.197       273.90478      3452.9891      2683.2073    
    682000  -1812.1538      9.7534617     -1802.4004      307.98393      3882.609       2683.2073    
    683000  -1812.6905      9.4491909     -1803.2413      298.37601      3761.4864      2683.2073    
    684000  -1813.4275      7.5578069     -1805.8697      238.652        3008.5738      2683.2073    
    685000  -1811.6523      8.8266384     -1802.8257      278.71774      3513.6638      2683.2073    
    686000  -1812.5545      9.7065707     -1802.8479      306.50326      3863.9428      2683.2073    
    687000  -1812.0449      9.2655672     -1802.7793      292.57775      3688.3904      2683.2073    
    688000  -1813.7398      8.7136472     -1805.0261      275.14983      3468.6848      2683.2073    
    689000  -1813.7436      9.265021      -1804.4785      292.5605       3688.1729      2683.2073    
    690000  -1813.052       9.9702069     -1803.0818      314.82807      3968.8898      2683.2073    
    691000  -1813.5589      8.1639129     -1805.395       257.79093      3249.8494      2683.2073    
    692000  -1812.3534      8.9837937     -1803.3696      283.68021      3576.2234      2683.2073    
    693000  -1812.7544      8.5711268     -1804.1833      270.64948      3411.9511      2683.2073    
    694000  -1813.3913      8.9224834     -1804.4688      281.74423      3551.8173      2683.2073    
    695000  -1812.5704      8.2961748     -1804.2742      261.96735      3302.4995      2683.2073    
    696000  -1813.6922      9.2497811     -1804.4425      292.07927      3682.1063      2683.2073    
    697000  -1813.3675      8.5349842     -1804.8325      269.50821      3397.5636      2683.2073    
    698000  -1813.4887      9.4627059     -1804.026       298.80277      3766.8663      2683.2073    
    699000  -1813.0043      8.8462995     -1804.158       279.33857      3521.4904      2683.2073    
    700000  -1813.4373      9.6211659     -1803.8162      303.80644      3829.9453      2683.2073    
    701000  -1812.3142      9.5343272     -1802.7798      301.06435      3795.377       2683.2073    
    702000  -1812.8758      8.4425561     -1804.4332      266.58962      3360.7703      2683.2073    
    703000  -1813.4397      8.4873364     -1804.9523      268.00364      3378.5962      2683.2073    
    704000  -1813.593       9.616727      -1803.9762      303.66628      3828.1783      2683.2073    
    705000  -1811.5406      8.6238394     -1802.9168      272.31398      3432.9346      2683.2073    
    706000  -1813.989       9.2555573     -1804.7334      292.26166      3684.4057      2683.2073    
    707000  -1813.8715      8.9309911     -1804.9405      282.01287      3555.204       2683.2073    
    708000  -1812.122       9.2711463     -1802.8508      292.75391      3690.6113      2683.2073    
    709000  -1812.014       8.8144377     -1803.1996      278.33248      3508.807       2683.2073    
    710000  -1812.5122      8.1332585     -1804.3789      256.82296      3237.6466      2683.2073    
    711000  -1812.7124      8.856453      -1803.8559      279.65919      3525.5323      2683.2073    
    712000  -1813.7979      9.5332065     -1804.2647      301.02896      3794.9309      2683.2073    
    713000  -1812.0995      8.9049807     -1803.1946      281.19155      3544.8499      2683.2073    
    714000  -1813.1233      9.4985829     -1803.6247      299.93565      3781.1481      2683.2073    
    715000  -1811.404       8.9687711     -1802.4352      283.20585      3570.2433      2683.2073    
    716000  -1812.7479      9.1149506     -1803.6329      287.82174      3628.4337      2683.2073    
    717000  -1812.4718      8.3884756     -1804.0833      264.88192      3339.2422      2683.2073    
    718000  -1813.5877      8.9942706     -1804.5934      284.01104      3580.394       2683.2073    
    719000  -1812.5329      8.055922      -1804.4769      254.38092      3206.8609      2683.2073    
    720000  -1811.8136      8.6226397     -1803.1909      272.2761       3432.457       2683.2073    
    721000  -1811.4442      8.3518825     -1803.0923      263.72643      3324.6754      2683.2073    
    722000  -1813.3707      8.8029156     -1804.5678      277.96865      3504.2203      2683.2073    
    723000  -1813.0722      8.5279472     -1804.5442      269.286        3394.7623      2683.2073    
    724000  -1812.8003      9.9101176     -1802.8902      312.93064      3944.9697      2683.2073    
    725000  -1812.3736      8.6128212     -1803.7608      271.96606      3428.5485      2683.2073    
    726000  -1813.2959      9.4207014     -1803.8752      297.4764       3750.1454      2683.2073    
    727000  -1812.9191      8.5248712     -1804.3943      269.18887      3393.5378      2683.2073    
    728000  -1812.466       8.8787234     -1803.5873      280.36242      3534.3976      2683.2073    
    729000  -1811.6168      8.6730086     -1802.9438      273.86659      3452.5076      2683.2073    
[...]
   1628000  -1812.594       9.5198175     -1803.0742      300.60618      3789.601       2683.2073    
   1629000  -1813.6735      9.1522165     -1804.5213      288.99848      3643.2683      2683.2073    
   1630000  -1812.6862      8.7649887     -1803.9212      276.77103      3489.1226      2683.2073    
   1631000  -1811.9792      8.8025587     -1803.1766      277.95738      3504.0783      2683.2073    
   1632000  -1813.6138      9.3627513     -1804.2511      295.64651      3727.0769      2683.2073    
   1633000  -1813.3341      8.8910724     -1804.443       280.75236      3539.3134      2683.2073    
   1634000  -1813.2083      8.0674026     -1805.1409      254.74344      3211.431       2683.2073    
   1635000  -1814.3958      9.0096974     -1805.3861      284.49817      3586.535       2683.2073    
   1636000  -1813.5453      8.6889733     -1804.8564      274.3707       3458.8628      2683.2073    
   1637000  -1812.3687      8.7987327     -1803.57        277.83657      3502.5553      2683.2073    
   1638000  -1813.8266      8.7421153     -1805.0844      276.04877      3480.0173      2683.2073    
   1639000  -1812.7251      9.1156637     -1803.6095      287.84426      3628.7175      2683.2073    
   1640000  -1812.9451      9.2758464     -1803.6693      292.90233      3692.4823      2683.2073    
   1641000  -1812.4372      8.6458389     -1803.7914      273.00866      3441.6921      2683.2073    
   1642000  -1813.3046      9.0932965     -1804.2113      287.13797      3619.8137      2683.2073    
   1643000  -1812.3901      9.3062153     -1803.0839      293.86129      3704.5714      2683.2073    
   1644000  -1813.3649      8.8904768     -1804.4744      280.73356      3539.0763      2683.2073    
   1645000  -1813.5191      8.9028754     -1804.6162      281.12507      3544.0118      2683.2073    
   1646000  -1813.6922      8.8753086     -1804.8168      280.25459      3533.0382      2683.2073    
   1647000  -1813.6502      8.6490268     -1805.0012      273.10932      3442.9611      2683.2073    
   1648000  -1812.8775      8.6542476     -1804.2233      273.27418      3445.0393      2683.2073    
   1649000  -1813.6004      8.2088364     -1805.3916      259.20948      3267.7323      2683.2073    
   1650000  -1814.5011      9.493142      -1805.008       299.76385      3778.9822      2683.2073    
   1651000  -1813.6656      8.8861187     -1804.7795      280.59594      3537.3414      2683.2073    
   1652000  -1811.7982      7.923054      -1803.8752      250.18536      3153.9695      2683.2073    
   1653000  -1812.2422      8.7880227     -1803.4542      277.49838      3498.2919      2683.2073    
   1654000  -1812.2109      9.2015626     -1803.0093      290.55668      3662.9118      2683.2073    
   1655000  -1813.2537      9.0911355     -1804.1626      287.06973      3618.9535      2683.2073    
   1656000  -1813.0331      9.1953081     -1803.8378      290.35918      3660.422       2683.2073    
   1657000  -1812.5393      8.4666419     -1804.0727      267.35017      3370.3582      2683.2073    
   1658000  -1812.6006      10.021925     -1802.5787      316.46117      3989.4775      2683.2073    
   1659000  -1812.7201      8.823143      -1803.8969      278.60737      3512.2724      2683.2073    
   1660000  -1812.4273      9.2035007     -1803.2238      290.61788      3663.6833      2683.2073    
   1661000  -1812.449       8.8483749     -1803.6007      279.40411      3522.3166      2683.2073    
   1662000  -1813.4318      9.4629202     -1803.9688      298.80954      3766.9517      2683.2073    
   1663000  -1812.7533      9.5803533     -1803.173       302.51771      3813.6989      2683.2073    
   1664000  -1811.5308      9.5276622     -1802.0031      300.85389      3792.7238      2683.2073    
   1665000  -1813.0761      8.2402244     -1804.8359      260.20061      3280.2271      2683.2073    
   1666000  -1812.418       8.0397987     -1804.3782      253.87179      3200.4426      2683.2073    
   1667000  -1812.9871      8.7550404     -1804.2321      276.4569       3485.1625      2683.2073    
   1668000  -1812.7014      9.3012759     -1803.4002      293.70531      3702.6051      2683.2073    
   1669000  -1813.0804      9.7335652     -1803.3468      307.35566      3874.6887      2683.2073    
   1670000  -1811.6906      8.5291684     -1803.1614      269.32457      3395.2485      2683.2073    
   1671000  -1813.0433      8.5847497     -1804.4586      271.07965      3417.374       2683.2073    
   1672000  -1812.409       9.370744      -1803.0383      295.8989       3730.2586      2683.2073    
   1673000  -1813.6058      9.538486      -1804.0673      301.19567      3797.0325      2683.2073    
   1674000  -1812.6232      8.3453949     -1804.2778      263.52157      3322.0928      2683.2073    
   1675000  -1813.2644      9.5733058     -1803.6911      302.29517      3810.8934      2683.2073    
   1676000  -1813.0445      9.0133307     -1804.0311      284.6129       3587.9813      2683.2073    
   1677000  -1814.0773      8.9285396     -1805.1488      281.93546      3554.2281      2683.2073    
   1678000  -1813.1328      8.8391511     -1804.2936      279.11285      3518.6448      2683.2073    
   1679000  -1812.8934      9.0808712     -1803.8125      286.74562      3614.8675      2683.2073    
   1680000  -1813.3168      8.1939755     -1805.1228      258.74022      3261.8165      2683.2073    
   1681000  -1813.036       9.1410481     -1803.8949      288.64582      3638.8224      2683.2073    
   1682000  -1812.0011      8.4691988     -1803.5319      267.43091      3371.3761      2683.2073    
   1683000  -1812.5666      8.4694442     -1804.0972      267.43866      3371.4737      2683.2073    
   1684000  -1811.7269      8.1570754     -1803.5698      257.57503      3247.1275      2683.2073    
   1685000  -1813.2316      8.5184923     -1804.7131      268.98745      3390.9985      2683.2073    
   1686000  -1813.1799      10.00971      -1803.1702      316.07546      3984.6151      2683.2073    
   1687000  -1814.1563      9.0095572     -1805.1467      284.49375      3586.4792      2683.2073    
   1688000  -1813.0333      9.0286807     -1804.0046      285.09761      3594.0918      2683.2073    
   1689000  -1813.5921      9.3460597     -1804.246       295.11945      3720.4324      2683.2073    
   1690000  -1812.2744      7.8280508     -1804.4464      247.18546      3116.1511      2683.2073    
   1691000  -1813.6434      9.1654054     -1804.478       289.41495      3648.5185      2683.2073    
   1692000  -1812.8168      8.8962582     -1803.9205      280.91612      3541.3777      2683.2073    
   1693000  -1812.3333      9.4051385     -1802.9281      296.98497      3743.9502      2683.2073    
   1694000  -1813.2806      9.6022819     -1803.6783      303.21014      3822.4281      2683.2073    
   1695000  -1813.3846      9.4785464     -1803.9061      299.30296      3773.1721      2683.2073    
   1696000  -1812.9243      10.009281     -1802.915       316.06191      3984.4442      2683.2073    
   1697000  -1813.6739      8.4150071     -1805.2589      265.71971      3349.8037      2683.2073    
   1698000  -1812.6153      9.1556603     -1803.4597      289.10723      3644.6392      2683.2073    
   1699000  -1813.1772      9.3731164     -1803.8041      295.97381      3731.203       2683.2073    
   1700000  -1812.7892      9.3064601     -1803.4827      293.86901      3704.6688      2683.2073    
   1701000  -1812.8558      9.0843563     -1803.7715      286.85567      3616.2548      2683.2073    
   1702000  -1812.4709      8.5766303     -1803.8943      270.82326      3414.1418      2683.2073    
   1703000  -1813.2319      9.1765532     -1804.0553      289.76696      3652.9561      2683.2073    
   1704000  -1811.5318      8.5426178     -1802.9891      269.74925      3400.6023      2683.2073    
   1705000  -1814.0255      7.5159356     -1806.5095      237.32983      2991.9058      2683.2073    
   1706000  -1813.5077      8.8996134     -1804.6081      281.02206      3542.7133      2683.2073    
   1707000  -1811.6415      9.1046869     -1802.5368      287.49765      3624.348       2683.2073    
   1708000  -1812.5464      9.9046984     -1802.6417      312.75952      3942.8125      2683.2073    
   1709000  -1813.1171      8.6946671     -1804.4224      274.5505       3461.1294      2683.2073    
   1710000  -1812.5671      9.701212      -1802.8659      306.33405      3861.8097      2683.2073    
   1711000  -1812.5856      8.8191852     -1803.7664      278.48239      3510.6969      2683.2073    
   1712000  -1813.5406      8.4639029     -1805.0767      267.26368      3369.2679      2683.2073    
   1713000  -1811.8729      9.1272761     -1802.7456      288.21094      3633.3401      2683.2073    
   1714000  -1812.5102      10.084626     -1802.4255      318.44107      4014.4373      2683.2073    
   1715000  -1811.9559      8.5601226     -1803.3958      270.302        3407.5705      2683.2073    
   1716000  -1812.5106      9.0174506     -1803.4932      284.74299      3589.6214      2683.2073    
   1717000  -1812.2994      9.2655556     -1803.0338      292.57738      3688.3858      2683.2073    
   1718000  -1813.4986      8.5800806     -1804.9185      270.93221      3415.5153      2683.2073    
   1719000  -1813.2266      8.6504697     -1804.5761      273.15488      3443.5354      2683.2073    
   1720000  -1813.4613      8.5967032     -1804.8646      271.4571       3422.1324      2683.2073    
   1721000  -1812.4046      8.8114604     -1803.5931      278.23847      3507.6218      2683.2073    
   1722000  -1813.4086      8.6050342     -1804.8035      271.72017      3425.4487      2683.2073    
   1723000  -1812.627       9.4693675     -1803.1576      299.01312      3769.5182      2683.2073    
   1724000  -1812.9534      9.4672084     -1803.4862      298.94494      3768.6587      2683.2073    
   1725000  -1812.7476      9.4276449     -1803.32        297.69565      3752.9095      2683.2073    
   1726000  -1812.5561      9.8867705     -1802.6693      312.19341      3935.6759      2683.2073    
   1727000  -1813.1656      8.998809      -1804.1667      284.15435      3582.2006      2683.2073    
   1728000  -1813.6166      8.1888412     -1805.4278      258.57809      3259.7727      2683.2073    
   1729000  -1813.1828      8.4170253     -1804.7658      265.78343      3350.6071      2683.2073    
   1730000  -1813.4733      9.4136791     -1804.0596      297.25466      3747.35        2683.2073    
   1731000  -1814.5986      9.6686702     -1804.9299      305.30648      3848.8556      2683.2073    
   1732000  -1812.7951      10.14553      -1802.6495      320.36424      4038.6817      2683.2073    
   1733000  -1812.6924      9.6262465     -1803.0661      303.96687      3831.9678      2683.2073    
   1734000  -1814.4078      9.3974589     -1805.0104      296.74247      3740.8932      2683.2073    
   1735000  -1813.0607      8.4692604     -1804.5914      267.43286      3371.4006      2683.2073    
   1736000  -1812.4335      8.5843269     -1803.8492      271.0663       3417.2057      2683.2073    
   1737000  -1812.6448      8.2036082     -1804.4412      259.04439      3265.6511      2683.2073    
   1738000  -1813.0913      9.5526847     -1803.5386      301.64402      3802.6846      2683.2073    
   1739000  -1813.0394      9.1430429     -1803.8964      288.70881      3639.6165      2683.2073    
   1740000  -1811.8964      9.4917287     -1802.4046      299.71922      3778.4196      2683.2073    
   1741000  -1811.8151      8.8336581     -1802.9815      278.9394       3516.4582      2683.2073    
   1742000  -1812.6529      9.2715378     -1803.3813      292.76628      3690.7671      2683.2073    
   1743000  -1812.8015      8.2029937     -1804.5985      259.02498      3265.4064      2683.2073    
   1744000  -1812.3275      8.5208276     -1803.8067      269.06119      3391.9282      2683.2073    
   1745000  -1811.7425      9.3387744     -1802.4037      294.8894       3717.5323      2683.2073    
   1746000  -1813.9149      8.6800693     -1805.2349      274.08954      3455.3183      2683.2073    
   1747000  -1811.8105      8.3202565     -1803.4903      262.72778      3312.0858      2683.2073    
   1748000  -1812.9171      8.3413307     -1804.5758      263.39323      3320.475       2683.2073    
   1749000  -1812.0432      8.5341741     -1803.5091      269.48263      3397.2411      2683.2073    
   1750000  -1811.7063      8.5366788     -1803.1697      269.56172      3398.2382      2683.2073    
   1751000  -1812.4117      8.8377745     -1803.5739      279.06938      3518.0968      2683.2073    
   1752000  -1812.0655      8.8077639     -1803.2577      278.12174      3506.1503      2683.2073    
   1753000  -1812.2976      8.8175389     -1803.4801      278.43041      3510.0415      2683.2073    
   1754000  -1812.2599      9.0251892     -1803.2347      284.98736      3592.7019      2683.2073    
   1755000  -1812.6159      9.4928037     -1803.1231      299.75317      3778.8476      2683.2073    
   1756000  -1812.2494      9.1257173     -1803.1237      288.16172      3632.7196      2683.2073    
   1757000  -1811.6072      9.4129506     -1802.1942      297.23165      3747.06        2683.2073    
   1758000  -1812.9539      9.5593124     -1803.3945      301.8533       3805.323       2683.2073    
   1759000  -1812.8241      8.9744674     -1803.8496      283.38572      3572.5108      2683.2073    
   1760000  -1813.4204      9.326614      -1804.0938      294.50541      3712.6916      2683.2073    
   1761000  -1812.7256      9.1877478     -1803.5378      290.12045      3657.4124      2683.2073    
   1762000  -1812.3824      9.2083366     -1803.1741      290.77058      3665.6083      2683.2073    
   1763000  -1813.2226      8.4222438     -1804.8004      265.94822      3352.6844      2683.2073    
   1764000  -1813.6144      8.5346353     -1805.0797      269.49719      3397.4247      2683.2073    
   1765000  -1813.814       8.8146299     -1804.9994      278.33855      3508.8835      2683.2073    
   1766000  -1813.0596      8.9027827     -1804.1569      281.12214      3543.9749      2683.2073    
   1767000  -1812.5506      8.9817971     -1803.5688      283.61717      3575.4286      2683.2073    
   1768000  -1813.085       9.1091882     -1803.9758      287.63978      3626.1398      2683.2073    
   1769000  -1814.0328      8.0131447     -1806.0196      253.03014      3189.8323      2683.2073    
   1770000  -1812.9396      8.5281865     -1804.4114      269.29356      3394.8576      2683.2073    
   1771000  -1813.5289      9.3883175     -1804.1406      296.45382      3737.2542      2683.2073    
   1772000  -1812.1226      10.26669      -1801.856       324.19007      4086.9122      2683.2073    
   1773000  -1813.3025      8.3752786     -1804.9272      264.4652       3333.9888      2683.2073    
   1774000  -1812.5424      8.2676427     -1804.2747      261.0664       3291.1416      2683.2073    
   1775000  -1812.9718      9.580295      -1803.3915      302.51587      3813.6756      2683.2073    
   1776000  -1813.375       8.6722328     -1804.7028      273.84209      3452.1988      2683.2073    
   1777000  -1812.9261      8.8691049     -1804.057       280.0587       3530.5687      2683.2073    
   1778000  -1812.4913      8.7594263     -1803.7319      276.59539      3486.9084      2683.2073    
   1779000  -1813.3594      8.7551458     -1804.6042      276.46023      3485.2044      2683.2073    
   1780000  -1812.2297      8.7657925     -1803.4639      276.79642      3489.4426      2683.2073    
   1781000  -1811.6525      8.9615874     -1802.6909      282.97901      3567.3836      2683.2073    
   1782000  -1812.4402      9.1952785     -1803.2449      290.35825      3660.4102      2683.2073    
   1783000  -1813.7309      9.2693885     -1804.4615      292.69841      3689.9115      2683.2073    
   1784000  -1812.71        8.5352963     -1804.1747      269.51806      3397.6878      2683.2073    
   1785000  -1812.5896      8.7472227     -1803.8424      276.21004      3482.0504      2683.2073    
   1786000  -1812.7323      9.3138959     -1803.4184      294.10382      3707.6288      2683.2073    
   1787000  -1812.488       8.9462177     -1803.5418      282.49368      3561.2653      2683.2073    
   1788000  -1812.7221      8.5201558     -1804.202       269.03997      3391.6607      2683.2073    
   1789000  -1813.1643      8.8905614     -1804.2737      280.73623      3539.11        2683.2073    
   1790000  -1812.5622      9.2328137     -1803.3294      291.54349      3675.352       2683.2073    
   1791000  -1812.8873      9.1183851     -1803.7689      287.93019      3629.8009      2683.2073    
   1792000  -1813.4686      9.3512202     -1804.1174      295.2824       3722.4867      2683.2073    
   1793000  -1812.4422      9.1549904     -1803.2872      289.08607      3644.3725      2683.2073    
   1794000  -1813.6016      8.0128267     -1805.5888      253.0201       3189.7058      2683.2073    
   1795000  -1811.9353      8.4846813     -1803.4506      267.9198       3377.5392      2683.2073    
   1796000  -1812.541       8.2339762     -1804.307       260.00332      3277.7398      2683.2073    
   1797000  -1811.6596      9.3119154     -1802.3477      294.04127      3706.8404      2683.2073    
   1798000  -1812.7669      9.5404022     -1803.2265      301.25618      3797.7953      2683.2073    
   1799000  -1811.3838      8.5881772     -1802.7956      271.18788      3418.7384      2683.2073    
   1800000  -1812.9484      9.206048      -1803.7424      290.69831      3664.6973      2683.2073    
   1801000  -1812.9699      9.115642      -1803.8542      287.84357      3628.7089      2683.2073    
   1802000  -1812.5352      9.4077776     -1803.1275      297.0683       3745.0008      2683.2073    
   1803000  -1812.5258      9.2048155     -1803.3209      290.65939      3664.2066      2683.2073    
   1804000  -1812.9176      8.5598298     -1804.3578      270.29276      3407.454       2683.2073    
   1805000  -1813.3317      8.8739446     -1804.4578      280.21152      3532.4952      2683.2073    
   1806000  -1813.5816      9.1095874     -1804.472       287.65239      3626.2987      2683.2073    
   1807000  -1811.9304      9.7150841     -1802.2153      306.77209      3867.3318      2683.2073    
   1808000  -1812.8059      8.1782869     -1804.6276      258.24482      3255.5713      2683.2073    
   1809000  -1813.5098      8.491123      -1805.0186      268.12321      3380.1035      2683.2073    
   1810000  -1813.2811      8.450425      -1804.8307      266.83809      3363.9027      2683.2073    
   1811000  -1813.5892      8.6303304     -1804.9589      272.51895      3435.5185      2683.2073    
   1812000  -1813.4515      9.2632287     -1804.1883      292.5039       3687.4595      2683.2073    
   1813000  -1812.4527      8.459087      -1803.9936      267.11161      3367.3508      2683.2073    
   1814000  -1812.6248      9.1549128     -1803.4698      289.08362      3644.3416      2683.2073    
   1815000  -1813.0099      8.61408       -1804.3958      272.00581      3429.0496      2683.2073    
   1816000  -1812.6907      8.9131362     -1803.7775      281.44907      3548.0964      2683.2073    
   1817000  -1813.589       9.197522      -1804.3915      290.42909      3661.3033      2683.2073    
   1818000  -1812.7333      8.0847263     -1804.6485      255.29047      3218.3272      2683.2073    
   1819000  -1813.0202      8.674452      -1804.3458      273.91217      3453.0822      2683.2073    
   1820000  -1812.7106      8.7498572     -1803.9607      276.29323      3483.0991      2683.2073    
   1821000  -1814.0092      9.209053      -1804.8001      290.7932       3665.8935      2683.2073    
   1822000  -1812.4802      8.107709      -1804.3725      256.01619      3227.476       2683.2073    
   1823000  -1812.773       8.8256196     -1803.9474      278.68557      3513.2583      2683.2073    
