 vasp.6.4.3 19Mar24 (build Sep  4 2024 12:23:58) complex                         
 executed on              LinuxNV date 2025.10.01  16:30:44
 running    4 mpi-ranks, with    1 threads/rank, on    1 nodes
 distrk:  each k-point on    2 cores,    2 groups
 distr:  one band on NCORE=   1 cores,    2 groups
 OpenACC runtime initialized ...    4 GPUs detected


--------------------------------------------------------------------------------------------------------


 INCAR:
   ENCUT = 800.000000
   SIGMA = 0.100000
   EDIFF = 1.00e-07
   ALGO = fast
   METAGGA = R2SCAN
   PREC = Accurate
   IBRION = -1
   ICHARG = 2
   ISMEAR = 0
   ISTART = 0
   KPAR = 2
   NELM = 160
   NPAR = 2
   NCORE = 1
   LAECHG = .TRUE.
   LASPH = .TRUE.
   LVHAR = .TRUE.
   LMIXTAU = .TRUE.
   LREAL = Auto

 POTCAR:    PAW_PBE Cu 22Jun2005                  
 POTCAR:    PAW_PBE O_h 06Feb2004                 
 POTCAR:    PAW_PBE H_h 06Feb2004                 
 POTCAR:    PAW_PBE Cu 22Jun2005                  
   VRHFIN =Cu: d10 p1                                                                               
   LEXCH  = PE                                                                                      
   EATOM  =  1390.9808 eV,  102.2342 Ry                                                             
                                                                                                    
   TITEL  = PAW_PBE Cu 22Jun2005                                                                    
   LULTRA =        F    use ultrasoft PP ?                                                          
   IUNSCR =        1    unscreen: 0-lin 1-nonlin 2-no                                               
   RPACOR =    2.000    partial core radius                                                         
   POMASS =   63.546; ZVAL   =   11.000    mass and valenz                                          
   RCORE  =    2.300    outmost cutoff radius                                                       
   RWIGS  =    2.200; RWIGS  =    1.164    wigner-seitz radius (au A)                               
   ENMAX  =  295.446; ENMIN  =  221.585 eV                                                          
   ICORE  =        3    local potential                                                             
   LCOR   =        T    correct aug charges                                                         
   LPAW   =        T    paw PP                                                                      
   EAUG   =  586.980                                                                                
   DEXC   =    0.000                                                                                
   RMAX   =    2.344    core radius for proj-oper                                                   
   RAUG   =    1.300    factor for augmentation sphere                                              
   RDEP   =    2.302    radius for radial grids                                                     
   RDEPT  =    1.771    core radius for aug-charge                                                  
                                                                                                    
   Atomic configuration                                                                             
    9 entries                                                                                       
     n  l   j            E        occ.                                                              
     1  0  0.50     -8850.2468   2.0000                                                             
     2  0  0.50     -1062.3498   2.0000                                                             
     2  1  1.50      -916.8226   6.0000                                                             
     3  0  0.50      -114.6929   2.0000                                                             
     3  1  1.50       -72.1325   6.0000                                                             
     3  2  2.50        -5.0394  10.0000                                                             
     4  0  0.50        -4.6097   1.0000                                                             
     4  1  0.50        -4.0817   0.0000                                                             
     4  3  2.50        -1.3606   0.0000                                                             
   Description                                                                                      
     l       E           TYP  RCUT    TYP  RCUT                                                     
     2     -5.0393973     23  2.200                                                                 
     2     10.8846608     23  2.200                                                                 
     0     -4.6097109     23  2.200                                                                 
     0      8.2520465     23  2.200                                                                 
     1     -2.7211652     23  2.200                                                                 
     1     21.7055443     23  2.200                                                                 
     3      2.7211652     23  2.300                                                                 
  local pseudopotential read in
  partial core-charges read in
  partial kinetic energy density read in
  atomic valenz-charges read in
  non local Contribution for L=            2  read in
    real space projection operators read in
  non local Contribution for L=            2  read in
    real space projection operators read in
  non local Contribution for L=            0  read in
    real space projection operators read in
  non local Contribution for L=            0  read in
    real space projection operators read in
  non local Contribution for L=            1  read in
    real space projection operators read in
  non local Contribution for L=            1  read in
    real space projection operators read in
    PAW grid and wavefunctions read in
 
   number of l-projection  operators is LMAX  =            6
   number of lm-projection operators is LMMAX =           18
 
 POTCAR:    PAW_PBE O_h 06Feb2004                 
   VRHFIN =O: s2p4                                                                                  
   LEXCH  = PE                                                                                      
   EATOM  =   432.3788 eV,   31.7789 Ry                                                             
                                                                                                    
   TITEL  = PAW_PBE O_h 06Feb2004                                                                   
   LULTRA =        F    use ultrasoft PP ?                                                          
   IUNSCR =        1    unscreen: 0-lin 1-nonlin 2-no                                               
   RPACOR =    0.800    partial core radius                                                         
   POMASS =   16.000; ZVAL   =    6.000    mass and valenz                                          
   RCORE  =    1.100    outmost cutoff radius                                                       
   RWIGS  =    1.400; RWIGS  =    0.741    wigner-seitz radius (au A)                               
   ENMAX  =  700.000; ENMIN  =  500.000 eV                                                          
   ICORE  =        2    local potential                                                             
   LCOR   =        T    correct aug charges                                                         
   LPAW   =        T    paw PP                                                                      
   EAUG   =  888.804                                                                                
   DEXC   =    0.000                                                                                
   RMAX   =    1.128    core radius for proj-oper                                                   
   RAUG   =    1.300    factor for augmentation sphere                                              
   RDEP   =    1.125    radius for radial grids                                                     
   RDEPT  =    1.088    core radius for aug-charge                                                  
                                                                                                    
   Atomic configuration                                                                             
    4 entries                                                                                       
     n  l   j            E        occ.                                                              
     1  0  0.50      -514.6923   2.0000                                                             
     2  0  0.50       -23.9615   2.0000                                                             
     2  1  0.50        -9.0305   4.0000                                                             
     3  2  1.50        -9.5241   0.0000                                                             
   Description                                                                                      
     l       E           TYP  RCUT    TYP  RCUT                                                     
     0    -23.9615319     23  1.100                                                                 
     0    -25.3221145     23  1.100                                                                 
     1     -9.0304911     23  1.100                                                                 
     1     -5.4802209     23  1.100                                                                 
     2     -9.5240782      7  1.100                                                                 
  local pseudopotential read in
  partial core-charges read in
  partial kinetic energy density read in
  atomic valenz-charges read in
  non local Contribution for L=            0  read in
    real space projection operators read in
  non local Contribution for L=            0  read in
    real space projection operators read in
  non local Contribution for L=            1  read in
    real space projection operators read in
  non local Contribution for L=            1  read in
    real space projection operators read in
    PAW grid and wavefunctions read in
 
   number of l-projection  operators is LMAX  =            4
   number of lm-projection operators is LMMAX =            8
 
 POTCAR:    PAW_PBE H_h 06Feb2004                 
   VRHFIN =H: ultrasoft test                                                                        
   LEXCH  = PE                                                                                      
   EATOM  =    12.4884 eV,    0.9179 Ry                                                             
                                                                                                    
   TITEL  = PAW_PBE H_h 06Feb2004                                                                   
   LULTRA =        F    use ultrasoft PP ?                                                          
   IUNSCR =        0    unscreen: 0-lin 1-nonlin 2-no                                               
   RPACOR =    0.000    partial core radius                                                         
   POMASS =    1.000; ZVAL   =    1.000    mass and valenz                                          
   RCORE  =    0.800    outmost cutoff radius                                                       
   RWIGS  =    0.700; RWIGS  =    0.370    wigner-seitz radius (au A)                               
   ENMAX  =  700.000; ENMIN  =  350.000 eV                                                          
   RCLOC  =    0.701    cutoff for local pot                                                        
   LCOR   =        T    correct aug charges                                                         
   LPAW   =        T    paw PP                                                                      
   EAUG   = 1000.000                                                                                
   RMAX   =    0.819    core radius for proj-oper                                                   
   RAUG   =    1.000    factor for augmentation sphere                                              
   RDEP   =    0.817    radius for radial grids                                                     
   RDEPT  =    0.817    core radius for aug-charge                                                  
                                                                                                    
   Atomic configuration                                                                             
    2 entries                                                                                       
     n  l   j            E        occ.                                                              
     1  0  0.50        -6.4927   1.0000                                                             
     2  1  0.50        -3.4015   0.0000                                                             
   Description                                                                                      
     l       E           TYP  RCUT    TYP  RCUT                                                     
     0     -6.4927493     23  0.800                                                                 
     0      6.8029130     23  0.800                                                                 
     1     -6.8029130     23  0.800                                                                 
  local pseudopotential read in
  atomic valenz-charges read in
  non local Contribution for L=            0  read in
    real space projection operators read in
  non local Contribution for L=            0  read in
    real space projection operators read in
  non local Contribution for L=            1  read in
    real space projection operators read in
    PAW grid and wavefunctions read in
 
   number of l-projection  operators is LMAX  =            3
   number of lm-projection operators is LMMAX =            5
 
 Optimization of the real space projectors (new method)

 maximal supplied QI-value         = 16.25
 optimisation between [QCUT,QGAM] = [ 14.46, 28.93] = [ 58.58,234.33] Ry 
 Optimized for a Real-space Cutoff    1.35 Angstroem

   l    n(q)    QCUT    max X(q) W(low)/X(q) W(high)/X(q)  e(spline) 
   2     11    14.464     4.610    0.56E-04    0.10E-03    0.52E-06
   2     11    14.464     8.522    0.88E-04    0.16E-03    0.84E-06
   0     12    14.464    51.609    0.44E-04    0.29E-04    0.63E-06
   0     12    14.464    27.747    0.38E-04    0.27E-04    0.60E-06
   1     11    14.464    20.408    0.64E-04    0.66E-04    0.14E-06
   1     11    14.464    13.425    0.56E-04    0.59E-04    0.13E-06
 Optimization of the real space projectors (new method)

 maximal supplied QI-value         = 34.20
 optimisation between [QCUT,QGAM] = [ 14.37, 28.73] = [ 57.79,231.16] Ry 
 Optimized for a Real-space Cutoff    0.98 Angstroem

   l    n(q)    QCUT    max X(q) W(low)/X(q) W(high)/X(q)  e(spline) 
   0      8    14.366   280.207    0.54E-04    0.14E-03    0.22E-06
   0      8    14.366   228.978    0.55E-04    0.14E-03    0.22E-06
   1      8    14.366    86.127    0.24E-03    0.25E-03    0.26E-06
   1      8    14.366    65.368    0.24E-03    0.24E-03    0.26E-06
 Optimization of the real space projectors (new method)

 maximal supplied QI-value         = 47.24
 optimisation between [QCUT,QGAM] = [ 14.17, 28.82] = [ 56.25,232.56] Ry 
 Optimized for a Real-space Cutoff    0.95 Angstroem

   l    n(q)    QCUT    max X(q) W(low)/X(q) W(high)/X(q)  e(spline) 
   0      8    14.173    34.671    0.25E-03    0.45E-03    0.25E-06
   0      8    14.173    17.046    0.24E-03    0.43E-03    0.25E-06
   1      8    14.173     1.978    0.58E-04    0.22E-03    0.31E-06
 -----------------------------------------------------------------------------
|                                                                             |
|               ----> ADVICE to this user running VASP <----                  |
|                                                                             |
|     You enforced a specific xc type in the INCAR file but a different       |
|     type was found in the POTCAR file.                                      |
|     I HOPE YOU KNOW WHAT YOU ARE DOING!                                     |
|                                                                             |
 -----------------------------------------------------------------------------

  PAW_PBE Cu 22Jun2005                  :
 energy of atom  1       EATOM=-1390.9808
 kinetic energy error for atom=    0.0007 (will be added to EATOM!!)
  PAW_PBE O_h 06Feb2004                 :
 energy of atom  2       EATOM= -432.3788
 kinetic energy error for atom=    0.0500 (will be added to EATOM!!)
  PAW_PBE H_h 06Feb2004                 :
 energy of atom  3       EATOM=  -12.4884
 kinetic energy error for atom=    0.0035 (will be added to EATOM!!)
 
 
 POSCAR: Cu O  H
  positions in cartesian coordinates
  No initial velocities read in


 exchange-correlation table for R2SCAN
   RHO(1)=    0.500       N(1)  =     2000
   RHO(2)=  100.500       N(2)  =     4000
 


--------------------------------------------------------------------------------------------------------


 ion  position               nearest neighbor table
   1  0.703  0.127  0.331-  18 2.43  17 2.49   8 2.51   2 2.52  32 2.53   5 2.53  16 2.53  15 2.55
                             4 2.66
   2  0.951  0.133  0.333-   3 2.39  19 2.40  18 2.44  13 2.47   6 2.50   1 2.52  29 2.54   5 2.55
                            16 2.56
   3  0.186  0.119  0.335-  13 2.32  19 2.37   2 2.39  30 2.42  20 2.49   6 2.54   4 2.59  14 2.59
                             7 2.60
   4  0.440  0.115  0.330-  15 2.47  17 2.47   7 2.49  31 2.49  14 2.50  20 2.52   3 2.59   8 2.62
                             1 2.66
   5  0.820  0.381  0.331-  22 2.39  21 2.46   8 2.50   1 2.53   2 2.55   6 2.59  12 2.60   9 2.62
                            18 2.64
   6  0.076  0.378  0.329-  19 2.48  23 2.49   2 2.50  22 2.50   3 2.54   7 2.55   5 2.59  10 2.64
                             9 2.74
   7  0.327  0.366  0.331-  24 2.38  20 2.40   4 2.49   8 2.50  11 2.53   6 2.55  23 2.58   3 2.60
                            10 2.79
   8  0.573  0.371  0.333-  17 2.42  21 2.44  24 2.49   7 2.50   5 2.50   1 2.51  12 2.56  11 2.58
                             4 2.62
   9  0.938  0.646  0.330-  16 2.32  26 2.42  22 2.47  25 2.52  13 2.55  12 2.57  10 2.61   5 2.62
                             6 2.74
  10  0.195  0.644  0.326-  14 2.34  13 2.49  11 2.51  27 2.51  26 2.56  23 2.56   9 2.61   6 2.64
                             7 2.79
  11  0.442  0.621  0.327-  24 2.44  12 2.48  14 2.49  10 2.51   7 2.53  28 2.56   8 2.58  15 2.62
                            27 2.68
  12  0.685  0.633  0.333-  28 2.38  15 2.45  11 2.48  25 2.48  21 2.53   8 2.56   9 2.57   5 2.60
                            16 2.60
  13  0.073  0.891  0.326-   3 2.32   2 2.47  16 2.49  10 2.49  14 2.52  30 2.52   9 2.55  29 2.66
                            26 2.67
  14  0.320  0.867  0.332-  10 2.34  27 2.35  31 2.42  11 2.49   4 2.50  13 2.52  30 2.52  15 2.57
                             3 2.59
  15  0.573  0.879  0.325-  98 2.14  12 2.45   4 2.47   1 2.55  28 2.55  14 2.57  32 2.58  16 2.60
                            31 2.61  11 2.62
  16  0.828  0.878  0.331-   9 2.32  29 2.43  13 2.49   1 2.53   2 2.56  25 2.59  15 2.60  12 2.60
                            32 2.61
  17  0.566  0.197  0.396-  32 2.40   8 2.42  20 2.47   4 2.47   1 2.49  31 2.50  33 2.51  18 2.56
                            37 2.58  40 2.61  21 2.62  24 2.75
  18  0.818  0.189  0.399-  29 2.39  34 2.40   1 2.43  32 2.43   2 2.44  38 2.52  17 2.56  37 2.58
                            19 2.60  21 2.64   5 2.64  22 2.77
  19  0.073  0.218  0.397-   3 2.37   2 2.40  39 2.46   6 2.48  20 2.53  22 2.57  38 2.57  35 2.58
                            23 2.59  30 2.59  18 2.60  29 2.70
  20  0.323  0.215  0.397-   7 2.40  40 2.46  17 2.47   3 2.49  24 2.52   4 2.52  19 2.53  36 2.56
                            39 2.56  31 2.62  23 2.68  30 2.68
  21  0.697  0.454  0.399-   8 2.44  41 2.46   5 2.46  25 2.47  37 2.48  22 2.51  12 2.53  44 2.55
                            17 2.62  18 2.64  24 2.68  28 2.69
  22  0.944  0.469  0.394-   5 2.39  26 2.41   9 2.47  25 2.48   6 2.50  21 2.51  23 2.52  42 2.55
                            19 2.57  41 2.62  38 2.66  18 2.77
  23  0.192  0.479  0.396-  26 2.35  27 2.40  24 2.45   6 2.49  43 2.50  22 2.52  42 2.54  10 2.56
                             7 2.58  19 2.59  20 2.68  39 2.68
  24  0.434  0.471  0.395-   7 2.38  11 2.44  23 2.45   8 2.49  20 2.52  28 2.53  27 2.54  43 2.55
                            44 2.58  40 2.66  21 2.68  17 2.75
  25  0.810  0.704  0.400-  41 2.43  48 2.45  21 2.47  12 2.48  45 2.48  22 2.48  28 2.51   9 2.52
                            29 2.54  32 2.59  16 2.59  26 2.59
  26  0.066  0.704  0.396-  23 2.35  22 2.41   9 2.42  27 2.43  30 2.51  42 2.53  46 2.55  29 2.56
                            10 2.56  45 2.58  25 2.59  13 2.67
  27  0.305  0.719  0.397-  14 2.35  30 2.37  23 2.40  26 2.43  31 2.47  46 2.47  10 2.51  24 2.54
                            47 2.55  43 2.59  28 2.62  11 2.68
  28  0.563  0.718  0.396-  31 2.38  12 2.38  32 2.45  25 2.51  24 2.53  48 2.54  47 2.55  15 2.55
                            11 2.56  44 2.62  27 2.62  21 2.69
  29  0.937  0.954  0.399-  18 2.39  16 2.43  45 2.45  34 2.48  35 2.49  30 2.53   2 2.54  25 2.54
                            26 2.56  32 2.57  13 2.66  19 2.70
  30  0.187  0.953  0.399-  27 2.37   3 2.42  46 2.47  35 2.51  26 2.51  36 2.51  13 2.52  14 2.52
                            29 2.53  19 2.59  31 2.60  20 2.68
  31  0.443  0.950  0.397-  28 2.38  14 2.42  32 2.44  27 2.47   4 2.49  47 2.49  17 2.50  33 2.53
                            36 2.58  30 2.60  15 2.61  20 2.62
  32  0.683  0.960  0.398-  17 2.40  18 2.43  31 2.44  28 2.45  33 2.47  48 2.51  34 2.52   1 2.53
                            29 2.57  15 2.58  25 2.59  16 2.61
  33  0.562  0.042  0.466-  32 2.47  17 2.51  31 2.53  47 2.54  36 2.54  48 2.54  52 2.54  40 2.54
                            63 2.54  49 2.54  37 2.54  34 2.54
  34  0.813  0.042  0.466-  18 2.40  29 2.48  32 2.52  45 2.54  35 2.54  48 2.54  50 2.54  38 2.54
                            64 2.54  49 2.54  37 2.54  33 2.54
  35  0.063  0.042  0.466-  29 2.49  30 2.51  34 2.54  46 2.54  45 2.54  61 2.54  36 2.54  51 2.54
                            39 2.54  50 2.54  38 2.54  19 2.58
  36  0.313  0.042  0.466-  30 2.51  33 2.54  47 2.54  46 2.54  62 2.54  35 2.54  52 2.54  51 2.54
                            40 2.54  39 2.54  20 2.56  31 2.58
  37  0.688  0.292  0.466-  21 2.48  38 2.54  40 2.54  41 2.54  44 2.54  53 2.54  56 2.54  49 2.54
                            34 2.54  33 2.54  18 2.58  17 2.58
  38  0.937  0.292  0.466-  18 2.52  41 2.54  37 2.54  42 2.54  53 2.54  34 2.54  39 2.54  54 2.54
                            50 2.54  35 2.54  19 2.57  22 2.66
  39  0.187  0.292  0.466-  19 2.46  42 2.54  43 2.54  54 2.54  55 2.54  38 2.54  35 2.54  51 2.54
                            36 2.54  40 2.54  20 2.56  23 2.68
  40  0.438  0.292  0.466-  20 2.46  44 2.54  37 2.54  43 2.54  56 2.54  33 2.54  55 2.54  52 2.54
                            36 2.54  39 2.54  17 2.61  24 2.66
  41  0.813  0.542  0.466-  25 2.43  21 2.46  38 2.54  37 2.54  42 2.54  45 2.54  57 2.54  48 2.54
                            53 2.54  60 2.54  44 2.54  22 2.62
  42  0.063  0.542  0.466-  26 2.53  39 2.54  38 2.54  41 2.54  43 2.54  46 2.54  58 2.54  54 2.54
                            45 2.54  57 2.54  23 2.54  22 2.55
  43  0.313  0.542  0.466-  23 2.50  44 2.54  40 2.54  39 2.54  42 2.54  47 2.54  46 2.54  55 2.54
                            59 2.54  58 2.54  24 2.55  27 2.59
  44  0.562  0.542  0.466-  40 2.54  43 2.54  37 2.54  47 2.54  59 2.54  48 2.54  56 2.54  60 2.54
                            41 2.54  21 2.55  24 2.58  28 2.62
  45  0.937  0.792  0.466-  29 2.45  25 2.48  34 2.54  48 2.54  35 2.54  41 2.54  64 2.54  46 2.54
                            57 2.54  42 2.54  61 2.54  26 2.58
  46  0.187  0.792  0.466-  27 2.47  30 2.47  35 2.54  36 2.54  42 2.54  45 2.54  61 2.54  43 2.54
                            58 2.54  62 2.54  47 2.54  26 2.55
  47  0.438  0.792  0.466-  31 2.49  33 2.54  48 2.54  36 2.54  44 2.54  63 2.54  43 2.54  59 2.54
                            62 2.54  46 2.54  28 2.55  27 2.55
  48  0.688  0.792  0.466-  25 2.45  32 2.51  45 2.54  47 2.54  34 2.54  33 2.54  41 2.54  44 2.54
                            60 2.54  64 2.54  63 2.54  28 2.54
  49  0.688  0.125  0.534-  80 2.45  50 2.54  52 2.54  53 2.54  56 2.54  64 2.54  63 2.54  37 2.54
                            34 2.54  33 2.54  66 2.65  65 2.67
  50  0.937  0.125  0.534-  77 2.52  53 2.54  64 2.54  49 2.54  54 2.54  61 2.54  34 2.54  51 2.54
                            38 2.54  35 2.54  67 2.61  66 2.76
  51  0.187  0.125  0.534-  78 2.51  67 2.53  54 2.54  55 2.54  61 2.54  62 2.54  50 2.54  35 2.54
                            39 2.54  36 2.54  52 2.54  68 2.56
  52  0.438  0.125  0.534-  68 2.49  79 2.53  56 2.54  63 2.54  49 2.54  55 2.54  62 2.54  33 2.54
                            40 2.54  36 2.54  51 2.54  65 2.73
  53  0.813  0.375  0.534-  50 2.54  49 2.54  54 2.54  38 2.54  57 2.54  37 2.54  60 2.54  41 2.54
                            56 2.54  70 2.58  66 2.70  69 2.72
  54  0.063  0.375  0.534-  71 2.50  51 2.54  50 2.54  53 2.54  39 2.54  55 2.54  58 2.54  38 2.54
                            42 2.54  57 2.54  67 2.60  70 2.63
  55  0.313  0.375  0.534-  71 2.41  56 2.54  52 2.54  51 2.54  54 2.54  40 2.54  39 2.54  59 2.54
                            58 2.54  43 2.54  68 2.54  72 2.56
  56  0.562  0.375  0.534-  65 2.52  52 2.54  55 2.54  49 2.54  40 2.54  59 2.54  37 2.54  60 2.54
                            44 2.54  53 2.54  72 2.54  69 2.72
  57  0.937  0.625  0.534-  73 2.40  60 2.54  53 2.54  64 2.54  41 2.54  58 2.54  45 2.54  54 2.54
                            61 2.54  42 2.54  74 2.55  70 2.58
  58  0.187  0.625  0.534-  74 2.46  71 2.50  54 2.54  61 2.54  57 2.54  42 2.54  55 2.54  62 2.54
                            46 2.54  43 2.54  59 2.54  75 2.54
  59  0.438  0.625  0.534-  76 2.51  60 2.54  56 2.54  63 2.54  44 2.54  55 2.54  62 2.54  47 2.54
                            43 2.54  58 2.54  72 2.55  75 2.62
  60  0.688  0.625  0.534-  73 2.48  57 2.54  59 2.54  53 2.54  56 2.54  64 2.54  63 2.54  48 2.54
                            41 2.54  44 2.54  69 2.59  76 2.60
  61  0.063  0.875  0.534-  77 2.51  64 2.54  51 2.54  50 2.54  35 2.54  62 2.54  58 2.54  46 2.54
                            57 2.54  45 2.54  74 2.58  78 2.61
  62  0.313  0.875  0.534-  78 2.53  63 2.54  52 2.54  51 2.54  36 2.54  61 2.54  59 2.54  58 2.54
                            47 2.54  46 2.54  79 2.57  75 2.61
  63  0.562  0.875  0.534-  80 2.40  76 2.51  52 2.54  62 2.54  59 2.54  49 2.54  47 2.54  33 2.54
                            60 2.54  48 2.54  64 2.54  79 2.62
  64  0.813  0.875  0.534-  77 2.46  73 2.46  80 2.52  50 2.54  61 2.54  57 2.54  49 2.54  45 2.54
                            34 2.54  60 2.54  48 2.54  63 2.54
  65  0.569  0.233  0.607-  66 2.37  72 2.38  88 2.41  69 2.46  81 2.49  56 2.52  85 2.53  68 2.54
                            80 2.64  49 2.67  79 2.71  52 2.73
  66  0.801  0.209  0.610-  65 2.37  82 2.42  86 2.43  85 2.51  80 2.54  70 2.59  77 2.62  69 2.62
                            49 2.65  53 2.70  67 2.73  50 2.76
  67  0.071  0.204  0.605-  78 2.45  83 2.47  87 2.52  68 2.53  51 2.53  71 2.53  86 2.60  54 2.60
                            77 2.61  50 2.61  70 2.66  66 2.73
  68  0.320  0.207  0.603-  79 2.40  78 2.46  52 2.49  71 2.50  72 2.52  67 2.53  55 2.54  65 2.54
                            88 2.55  51 2.56  87 2.58  84 2.63
  69  0.687  0.476  0.609-  89 2.35  73 2.44  65 2.46  92 2.46  70 2.49  76 2.50  72 2.53  60 2.59
                            66 2.62  85 2.65  56 2.72  53 2.72
  70  0.932  0.461  0.606-  89 2.34  90 2.41  73 2.44  69 2.49  74 2.52  86 2.54  53 2.58  57 2.58
                            66 2.59  54 2.63  67 2.66  71 2.68
  71  0.196  0.453  0.600-  55 2.41  72 2.46  75 2.47  68 2.50  58 2.50  54 2.50  74 2.51  67 2.53
                            90 2.58  87 2.64  91 2.67  70 2.68
  72  0.439  0.458  0.604-  65 2.38  71 2.46  92 2.51  68 2.52  69 2.53  76 2.54  56 2.54  75 2.55
                            59 2.55  88 2.56  55 2.56  91 2.60
  73  0.820  0.706  0.599-  57 2.40  70 2.44  69 2.44  77 2.45  64 2.46  60 2.48  96 2.51  74 2.55
                            93 2.57  89 2.66  80 2.66  76 2.70
  74  0.071  0.699  0.603-  75 2.37  90 2.46  58 2.46  71 2.51  70 2.52  94 2.53  93 2.53  57 2.55
                            73 2.55  61 2.58  77 2.64  78 2.66
  75  0.305  0.704  0.605-  74 2.37  91 2.46  71 2.47  95 2.50  94 2.52  76 2.52  58 2.54  72 2.55
                            78 2.55  62 2.61  59 2.62  79 2.65
  76  0.554  0.715  0.603-  96 2.43  95 2.46  80 2.49  69 2.50  63 2.51  59 2.51  75 2.52  79 2.53
                            72 2.54  60 2.60  92 2.62  73 2.70
  77  0.932  0.954  0.601-  73 2.45  64 2.46  82 2.47  93 2.50  61 2.51  50 2.52  83 2.55  80 2.59
                            67 2.61  66 2.62  74 2.64  78 2.68
  78  0.196  0.966  0.604-  79 2.41  67 2.45  68 2.46  84 2.48  51 2.51  62 2.53  75 2.55  83 2.57
                            94 2.60  61 2.61  74 2.66  77 2.68
  79  0.433  0.967  0.605-  68 2.40  78 2.41  80 2.47  84 2.48  95 2.53  52 2.53  76 2.53  81 2.53
                            62 2.57  63 2.62  75 2.65  65 2.71
  80  0.677  0.960  0.600-  63 2.40  49 2.45  79 2.47  81 2.48  76 2.49  64 2.52  66 2.54  96 2.58
                            77 2.59  82 2.61  65 2.64  73 2.66
  81  0.574  0.049  0.670-  85 2.45  82 2.46  80 2.48  65 2.49  88 2.50  79 2.53  96 2.65  84 2.65
                            95 2.66
  82  0.815  0.027  0.670-  83 2.42  66 2.42  93 2.43  81 2.46  77 2.47  96 2.53  86 2.59  80 2.61
                            85 2.71
  83  0.054  0.039  0.671-  82 2.42  93 2.44  67 2.47  86 2.51  94 2.54  77 2.55  78 2.57  87 2.60
                            84 2.63
  84  0.313  0.032  0.674-  95 2.45  79 2.48  78 2.48  94 2.50  87 2.55  88 2.61  83 2.63  68 2.63
                            81 2.65
  85  0.685  0.295  0.679- 136 2.18  81 2.45  88 2.47  89 2.48  66 2.51  86 2.52  65 2.53  92 2.56
                            69 2.65  82 2.71
  86  0.932  0.289  0.673-  89 2.40  66 2.43  83 2.51  85 2.52  70 2.54  90 2.54  82 2.59  67 2.60
                            87 2.65
  87  0.194  0.287  0.673-  88 2.52  67 2.52  84 2.55  90 2.56  68 2.58  83 2.60  91 2.63  71 2.64
                            86 2.65
  88  0.442  0.288  0.673-  65 2.41  85 2.47  92 2.49  81 2.50  87 2.52  68 2.55  72 2.56  84 2.61
                            91 2.66
  89  0.820  0.529  0.671-  70 2.34  69 2.35  86 2.40  90 2.46  85 2.48  96 2.56  93 2.63  73 2.66
                            92 2.72
  90  0.062  0.536  0.669-  70 2.41  74 2.46  89 2.46  86 2.54  94 2.55  93 2.56  87 2.56  91 2.56
                            71 2.58
  91  0.314  0.553  0.674-  92 2.41  95 2.42  75 2.46  94 2.49  90 2.56  72 2.60  87 2.63  88 2.66
                            71 2.67
  92  0.552  0.542  0.674-  91 2.41  69 2.46  88 2.49  95 2.50  72 2.51  96 2.51  85 2.56  76 2.62
                            89 2.72
  93  0.944  0.793  0.669-  94 2.41  82 2.43  83 2.44  77 2.50  74 2.53  90 2.56  73 2.57  96 2.58
                            89 2.63
  94  0.181  0.791  0.673-  93 2.41  91 2.49  84 2.50  75 2.52  74 2.53  83 2.54  90 2.55  95 2.57
                            78 2.60
  95  0.435  0.791  0.671-  91 2.42  84 2.45  76 2.46  75 2.50  92 2.50  79 2.53  94 2.57  96 2.59
                            81 2.66
  96  0.690  0.778  0.667-  76 2.43  73 2.51  92 2.51  82 2.53  89 2.56  93 2.58  80 2.58  95 2.59
                            81 2.65
  97  0.684  0.869  0.027- 147 0.96 148 0.97
  98  0.608  0.912  0.256- 150 0.98 149 0.99  15 2.14
  99  0.081  0.223  0.020- 230 0.92 152 0.97
 100  0.055  0.115  0.889- 154 0.95 153 1.02
 101  0.864  0.475  0.843- 155 0.94 156 0.99
 102  0.143  0.399  0.872- 158 0.98 171 1.05
 103  0.854  0.920  0.096- 160 0.95 175 1.01
 104  0.383  0.383  0.214- 162 0.99 157 1.02
 105  0.219  0.127  0.230- 188 0.98 163 1.01
 106  0.215  0.638  0.244- 164 0.96 165 1.00
 107  0.907  0.225  0.229- 167 0.96 161 0.99
 108  0.503  0.281  0.827- 169 0.99 170 1.02
 109  0.645  0.205  0.192- 159 0.99 172 1.04
 110  0.380  0.878  0.205- 174 0.98 173 1.00
 111  0.315  0.057  0.775- 176 0.93 151 0.97
 112  0.080  0.720  0.132- 184 0.99 177 1.02
 113  0.561  0.148  0.024- 179 0.96 178 0.96
 114  0.358  0.923  0.115- 180 0.97 181 0.98
 115  0.070  0.998  0.782- 183 0.98 182 0.99
 116  0.877  0.945  0.848- 185 1.02 166 1.07
 117  0.593  0.022  0.779- 186 0.96 187 0.97
 118  0.847  0.810  0.228- 189 0.95 190 0.97
 119  0.711  0.393  0.004- 191 1.01 168 1.06
 120  0.064  0.949  0.184- 196 0.95 192 0.96
 121  0.224  0.425  0.792- 195 0.94 193 1.02
 122  0.060  0.675  0.795- 194 0.98 197 1.00
 123  0.413  0.463  0.910- 199 0.99 198 1.00
 124  0.908  0.348  0.943- 203 0.93 200 1.00
 125  0.825  0.606  0.748- 222 0.95 201 1.01
 126  0.754  0.196  0.847- 202 0.95 204 1.03
 127  0.185  0.904  0.034- 206 0.95 205 0.98
 128  0.513  0.693  0.076- 209 0.97 207 0.99
 129  0.553  0.535  0.764- 210 0.98 208 0.99
 130  0.759  0.632  0.136- 212 0.95 213 1.01
 131  0.977  0.309  0.762- 214 0.98 218 1.00
 132  0.319  0.406  0.076- 215 0.95 217 1.00
 133  0.484  0.206  0.116- 219 0.92 216 1.00
 134  0.189  0.903  0.937- 220 0.96 221 0.97
 135  0.850  0.196  0.136- 226 0.94 236 1.04
 136  0.722  0.298  0.750- 225 0.96 223 0.99  85 2.18
 137  0.859  0.442  0.073- 224 0.99 227 1.01
 138  0.629  0.576  0.211- 228 0.96 229 0.96
 139  0.304  0.744  0.862- 231 0.96 233 0.96
 140  0.332  0.260  0.978- 232 0.97 234 1.02
 141  0.101  0.544  0.050- 235 0.97 211 0.99
 142  0.585  0.766  0.821- 237 0.95 238 0.98
 143  0.619  0.637  0.959- 239 0.99 240 1.05
 144  0.083  0.586  0.958- 242 0.96 241 1.01
 145  0.753  0.699  0.889- 243 0.99 244 1.00
 146  0.988  0.541  0.206- 246 0.94 245 0.99
 147  0.766  0.879  0.043-  97 0.96
 148  0.651  0.973  0.026-  97 0.97
 149  0.689  0.863  0.244-  98 0.99
 150  0.538  0.869  0.238-  98 0.98
 151  0.408  0.045  0.782- 111 0.97
 152  0.023  0.254  0.996-  99 0.97
 153  0.010  0.036  0.869- 100 1.02
 154  0.125  0.058  0.902- 100 0.95
 155  0.899  0.535  0.820- 101 0.94
 156  0.824  0.557  0.861- 101 0.99
 157  0.472  0.331  0.220- 104 1.02
 158  0.060  0.453  0.866- 102 0.98
 159  0.617  0.120  0.211- 109 0.99
 160  0.947  0.907  0.096- 103 0.95
 161  0.817  0.207  0.241- 107 0.99
 162  0.316  0.302  0.220- 104 0.99
 163  0.156  0.065  0.211- 105 1.01
 164  0.263  0.730  0.241- 106 0.96
 165  0.268  0.551  0.232- 106 1.00
 166  0.839  0.871  0.873- 116 1.07
 167  0.952  0.239  0.257- 107 0.96
 168  0.776  0.377  0.977- 119 1.06
 169  0.525  0.368  0.808- 108 0.99
 170  0.458  0.326  0.854- 108 1.02
 171  0.110  0.285  0.874- 102 1.05
 172  0.572  0.199  0.168- 109 1.04
 173  0.374  0.881  0.172- 110 1.00
 174  0.339  0.978  0.210- 110 0.98
 175  0.852  0.026  0.108- 103 1.01
 176  0.306  0.048  0.745- 111 0.93
 177  0.023  0.638  0.146- 112 1.02
 178  0.616  0.235  0.017- 113 0.96
 179  0.509  0.177  0.049- 113 0.96
 180  0.408  0.834  0.106- 114 0.97
 181  0.276  0.914  0.097- 114 0.98
 182  0.999  0.011  0.804- 115 0.99
 183  0.145  0.045  0.797- 115 0.98
 184  0.090  0.679  0.102- 112 0.99
 185  0.817  0.038  0.849- 116 1.02
 186  0.600  0.014  0.747- 117 0.96
 187  0.647  0.112  0.784- 117 0.97
 188  0.200  0.124  0.262- 105 0.98
 189  0.870  0.805  0.259- 118 0.95
 190  0.895  0.718  0.221- 118 0.97
 191  0.754  0.429  0.032- 119 1.01
 192  1.000  0.895  0.201- 120 0.96
 193  0.194  0.424  0.824- 121 1.02
 194  0.138  0.617  0.786- 122 0.98
 195  0.279  0.338  0.791- 121 0.94
 196  0.085  0.881  0.161- 120 0.95
 197  0.066  0.777  0.780- 122 1.00
 198  0.494  0.500  0.925- 123 1.00
 199  0.361  0.406  0.932- 123 0.99
 200  0.974  0.432  0.942- 124 1.00
 201  0.919  0.613  0.758- 125 1.01
 202  0.767  0.301  0.853- 126 0.95
 203  0.900  0.286  0.918- 124 0.93
 204  0.652  0.193  0.848- 126 1.03
 205  0.127  0.832  0.019- 127 0.98
 206  0.145  1.000  0.028- 127 0.95
 207  0.579  0.754  0.059- 128 0.99
 208  0.466  0.564  0.751- 129 0.99
 209  0.558  0.644  0.100- 128 0.97
 210  0.590  0.618  0.781- 129 0.98
 211  0.008  0.508  0.052- 141 0.99
 212  0.740  0.649  0.166- 130 0.95
 213  0.772  0.740  0.125- 130 1.01
 214  0.013  0.213  0.773- 131 0.98
 215  0.376  0.486  0.067- 132 0.95
 216  0.432  0.109  0.112- 133 1.00
 217  0.235  0.457  0.068- 132 1.00
 218  0.056  0.373  0.769- 131 1.00
 219  0.425  0.285  0.115- 133 0.92
 220  0.237  0.841  0.916- 134 0.96
 221  0.254  0.948  0.956- 134 0.97
 222  0.792  0.707  0.751- 125 0.95
 223  0.674  0.396  0.755- 136 0.99
 224  0.868  0.338  0.084- 137 0.99
 225  0.815  0.312  0.754- 136 0.96
 226  0.920  0.192  0.157- 135 0.94
 227  0.849  0.502  0.101- 137 1.01
 228  0.575  0.509  0.193- 138 0.96
 229  0.630  0.529  0.240- 138 0.96
 230  0.084  0.314  0.035-  99 0.92
 231  0.339  0.647  0.871- 139 0.96
 232  0.403  0.213  0.995- 140 0.97
 233  0.228  0.739  0.843- 139 0.96
 234  0.265  0.269  0.003- 140 1.02
 235  0.112  0.574  0.019- 141 0.97
 236  0.778  0.181  0.160- 135 1.04
 237  0.496  0.794  0.826- 142 0.95
 238  0.630  0.847  0.804- 142 0.98
 239  0.626  0.728  0.979- 143 0.99
 240  0.648  0.549  0.981- 143 1.05
 241  0.083  0.698  0.950- 144 1.01
 242  0.147  0.546  0.937- 144 0.96
 243  0.700  0.676  0.916- 145 0.99
 244  0.688  0.716  0.865- 145 1.00
 245  0.960  0.451  0.223- 146 0.99
 246  0.074  0.564  0.216- 146 0.94
 
  LATTYP: Found a simple orthorhombic cell.
 ALAT       =     8.7818242399
 B/A-ratio  =     1.1547005384
 C/A-ratio  =     3.4310783653
  
  Lattice vectors:
  
 A1 = (   0.0000000000,  -8.7818242399,   0.0000000000)
 A2 = (  10.1403771778,   0.0000000000,   0.0000000000)
 A3 = (   0.0000000000,   0.0000000000,  30.1311271579)


Analysis of symmetry for initial positions (statically):
=====================================================================
 Subroutine PRICEL returns:
 Original cell was already a primitive cell.
 

 Routine SETGRP: Setting up the symmetry group for a 
 simple orthorhombic supercell.


 Subroutine GETGRP returns: Found  1 space group operations
 (whereof  1 operations were pure point group operations)
 out of a pool of  8 trial point group operations.


The static configuration has the point symmetry C_1 .


Analysis of symmetry for dynamics (positions and initial velocities):
=====================================================================
 Subroutine PRICEL returns:
 Original cell was already a primitive cell.
 

 Routine SETGRP: Setting up the symmetry group for a 
 simple orthorhombic supercell.


 Subroutine GETGRP returns: Found  1 space group operations
 (whereof  1 operations were pure point group operations)
 out of a pool of  8 trial point group operations.


The dynamic configuration has the point symmetry C_1 .


 Subroutine INISYM returns: Found  1 space group operations
 (whereof  1 operations are pure point group operations),
 and found     1 'primitive' translations


----------------------------------------------------------------------------------------

                                     Primitive cell                                     

  volume of cell :    2683.2073

  direct lattice vectors                    reciprocal lattice vectors
    10.140377178  0.000000000  0.000000000     0.098615661  0.000000000  0.000000000
     0.000000000  8.781824240  0.000000000     0.000000000  0.113871557  0.000000000
     0.000000000  0.000000000 30.131127158     0.000000000  0.000000000  0.033188271

  length of vectors
    10.140377178  8.781824240 30.131127158     0.098615661  0.113871557  0.033188271

  position of ions in fractional coordinates (direct lattice)
     0.702870305  0.127041941  0.330556502
     0.950799939  0.133021337  0.333289888
     0.185955608  0.118762340  0.334504579
     0.440452058  0.114984082  0.329595702
     0.820269291  0.381211228  0.331464201
     0.075997370  0.377907814  0.329043781
     0.326810329  0.366229147  0.331122030
     0.573490502  0.371006059  0.333402728
     0.937954263  0.646270051  0.330367993
     0.195379320  0.644415083  0.325614105
     0.441635446  0.621440358  0.326657212
     0.684925213  0.632599771  0.332765513
     0.073062568  0.890607667  0.326430205
     0.320031488  0.867373315  0.332367254
     0.572859362  0.878951775  0.325191286
     0.828487920  0.877816475  0.331161856
     0.565784674  0.197116220  0.395836503
     0.818287116  0.188943658  0.398747114
     0.073255362  0.217674591  0.396988136
     0.322679319  0.214861964  0.397359844
     0.697088469  0.454498962  0.398667462
     0.943965873  0.468591706  0.394067568
     0.191937634  0.479370787  0.395653967
     0.433760000  0.471028557  0.394595261
     0.810143435  0.704005208  0.400250543
     0.065569455  0.703644235  0.396314414
     0.304757895  0.719451885  0.397044556
     0.562943557  0.718034184  0.395644011
     0.936951341  0.953829156  0.399427474
     0.186738616  0.952914767  0.398521434
     0.442906602  0.950422119  0.397024643
     0.683453867  0.959636605  0.398445101
     0.562499787  0.041666628  0.465651349
     0.812500349  0.041666628  0.465651349
     0.062500042  0.041666628  0.465651349
     0.312500210  0.041666628  0.465651349
     0.687500068  0.291667190  0.465651349
     0.937499645  0.291667190  0.465651349
     0.187499929  0.291667190  0.465651349
     0.437500492  0.291667190  0.465651349
     0.812500349  0.541666500  0.465651349
     0.062500042  0.541666500  0.465651349
     0.312500210  0.541666500  0.465651349
     0.562499787  0.541666500  0.465651349
     0.937499645  0.791666949  0.465651349
     0.187499929  0.791666949  0.465651349
     0.437500492  0.791666949  0.465651349
     0.687500068  0.791666949  0.465651349
     0.687500068  0.125000224  0.534347750
     0.937499645  0.125000224  0.534347750
     0.187499929  0.125000224  0.534347750
     0.437500492  0.125000224  0.534347750
     0.812500349  0.374999534  0.534347750
     0.062500042  0.374999534  0.534347750
     0.312500210  0.374999534  0.534347750
     0.562499787  0.374999534  0.534347750
     0.937499645  0.624999983  0.534347750
     0.187499929  0.624999983  0.534347750
     0.437500492  0.624999983  0.534347750
     0.687500068  0.624999983  0.534347750
     0.062500042  0.875000432  0.534347750
     0.312500210  0.875000432  0.534347750
     0.562499787  0.875000432  0.534347750
     0.812500349  0.875000432  0.534347750
     0.568575498  0.232709053  0.606877396
     0.801344946  0.208581947  0.609695081
     0.070602009  0.204212696  0.604876144
     0.319589690  0.206773667  0.602735500
     0.687419203  0.476430624  0.608706070
     0.932215817  0.461498646  0.605662706
     0.196394075  0.452860350  0.600266293
     0.439131595  0.458306827  0.603764337
     0.819885676  0.706249616  0.599300514
     0.071491917  0.698958421  0.602728863
     0.305095160  0.704040508  0.605214664
     0.553797941  0.715083772  0.603190180
     0.932403187  0.953583193  0.601361506
     0.196017364  0.966024799  0.603671409
     0.433405969  0.967176041  0.604514392
     0.676865355  0.960030601  0.599718686
     0.573734083  0.048623496  0.669726024
     0.815316813  0.026703222  0.670024719
     0.053986946  0.039032323  0.671027005
     0.312718151  0.031845547  0.673595777
     0.684890698  0.294790687  0.678856118
     0.932394312  0.288515225  0.673124503
     0.193653546  0.287367400  0.673300401
     0.441903681  0.288475370  0.672762751
     0.819849188  0.529075722  0.670718354
     0.062482390  0.535646111  0.668800072
     0.314471537  0.552978501  0.674047137
     0.552000177  0.541569709  0.673857964
     0.943686791  0.792530095  0.669493706
     0.181469581  0.790779889  0.673154373
     0.434623873  0.791209185  0.670874338
     0.689929958  0.778310954  0.666981354
     0.684033728  0.869300021  0.026759404
     0.608175603  0.912304754  0.255782997
     0.080616528  0.222839805  0.020079966
     0.055331867  0.115483978  0.888592712
     0.864013226  0.474721412  0.842530711
     0.142699820  0.398556143  0.871749665
     0.853662526  0.919641498  0.095589852
     0.382516344  0.382964850  0.214409835
     0.218733481  0.126970202  0.229910749
     0.214795758  0.637545212  0.244318441
     0.907168426  0.224989700  0.229269883
     0.503173591  0.280609123  0.827194412
     0.644644660  0.205105449  0.191999787
     0.379920779  0.878331175  0.204656466
     0.314712160  0.056653377  0.775331101
     0.079872078  0.720389048  0.132223066
     0.560854878  0.148085405  0.023890543
     0.358078397  0.923190875  0.114566574
     0.069575716  0.997697392  0.782433391
     0.877383538  0.944655663  0.847701444
     0.593054863  0.022049405  0.778938666
     0.847402404  0.810453478  0.227900867
     0.711351252  0.392616603  0.004006953
     0.064223942  0.949379055  0.184057834
     0.224405854  0.424624759  0.792044714
     0.059763852  0.674987319  0.794782747
     0.413049725  0.462678356  0.909587612
     0.907947489  0.348392306  0.943462880
     0.824526529  0.606397925  0.747695228
     0.753548893  0.196013943  0.847339692
     0.185187392  0.903856623  0.034068755
     0.513207735  0.693131613  0.075589273
     0.553406437  0.535072198  0.763522715
     0.759484570  0.632286624  0.136146583
     0.976988134  0.309055377  0.761524781
     0.319427960  0.405671977  0.076007445
     0.483832102  0.206042611  0.115759028
     0.189112295  0.902982089  0.936642690
     0.849718886  0.195875020  0.136147910
     0.722236449  0.298281989  0.750084784
     0.858844779  0.442314705  0.072869162
     0.628670895  0.575791528  0.210838777
     0.304493605  0.743777127  0.861929256
     0.331574451  0.259803651  0.978144623
     0.100717161  0.544004283  0.049807629
     0.585290852  0.766212101  0.821154146
     0.618992754  0.636757221  0.959386612
     0.083045037  0.585562847  0.957806850
     0.753242199  0.698868462  0.889336129
     0.988316295  0.541299834  0.205989971
     0.765702287  0.879138524  0.042918740
     0.650809125  0.973226037  0.026235062
     0.689073974  0.863305823  0.244016427
     0.537854747  0.868702196  0.237542059
     0.407723493  0.045212929  0.782138015
     0.023123302  0.254323013  0.995956341
     0.009867384  0.035737677  0.869386660
     0.124964780  0.058269214  0.901665572
     0.899496127  0.535076753  0.819514646
     0.824296755  0.556986779  0.860545305
     0.471750697  0.331294492  0.219559327
     0.060009701  0.453175774  0.866203905
     0.617109195  0.120304161  0.211448777
     0.947010139  0.907104240  0.095649591
     0.817383797  0.207410209  0.240712203
     0.316431030  0.301535299  0.219507553
     0.155989267  0.064723227  0.211024963
     0.263173643  0.730389248  0.241398205
     0.268071883  0.551170220  0.232264793
     0.839124606  0.870693809  0.872821646
     0.952452737  0.239462775  0.256876550
     0.776465201  0.376749740  0.977072641
     0.524725058  0.367907614  0.807563550
     0.457716702  0.326178243  0.854222939
     0.109864750  0.285326822  0.873681222
     0.571979710  0.199497274  0.167873906
     0.373618252  0.881269061  0.171668653
     0.339285210  0.978176033  0.210353564
     0.851728673  0.025741918  0.108475199
     0.305580349  0.048008248  0.744595444
     0.023369644  0.637569125  0.146061579
     0.615552054  0.235139072  0.017396960
     0.508895272  0.176564682  0.049067530
     0.408419719  0.833914435  0.106065066
     0.276486757  0.913662103  0.097062748
     0.998571079  0.011391369  0.804400707
     0.145208603  0.045155766  0.797285142
     0.090181360  0.679298496  0.101714416
     0.817489316  0.037683742  0.849158409
     0.600416522  0.014124145  0.747240549
     0.646950294  0.112026610  0.783628169
     0.200088218  0.123889977  0.261714404
     0.869792104  0.804882882  0.258574794
     0.895473594  0.718140084  0.221327598
     0.753983788  0.429047530  0.032321559
     0.999657096  0.895064600  0.201101007
     0.194248199  0.424077037  0.824250612
     0.138022479  0.616880941  0.785997811
     0.278794363  0.337654218  0.790654126
     0.085092002  0.881221235  0.160701920
     0.066343390  0.777085696  0.780110212
     0.493559550  0.499630815  0.925279026
     0.360726227  0.406247028  0.932016245
     0.973883893  0.432420406  0.942125392
     0.919102893  0.612787258  0.758053288
     0.766835381  0.301201656  0.853233929
     0.900366904  0.286348250  0.918422330
     0.652279485  0.193438169  0.847830878
     0.126510087  0.831716714  0.018911307
     0.144815126  0.999824560  0.028367243
     0.578918308  0.753986850  0.058720339
     0.466387977  0.564186878  0.751057200
     0.558073916  0.643612289  0.099973027
     0.590182189  0.617935392  0.781149005
     0.008485779  0.508250892  0.052020955
     0.740026714  0.648665909  0.166496924
     0.771523570  0.739568434  0.124763006
     0.013048430  0.213232462  0.773027835
     0.376259180  0.486157532  0.067357586
     0.432155523  0.109189386  0.112266627
     0.234778249  0.456960865  0.068456782
     0.055531662  0.373441771  0.769055199
     0.424531546  0.285375787  0.114979768
     0.236815649  0.841277370  0.915956441
     0.254030985  0.947797379  0.956180625
     0.791713154  0.706669802  0.750970911
     0.674301348  0.395643309  0.754528693
     0.868267506  0.337761258  0.084394121
     0.815058440  0.312437362  0.753752088
     0.920139344  0.191694795  0.156522190
     0.848892487  0.502317045  0.101175438
     0.575243889  0.508854411  0.193371790
     0.630406531  0.528586074  0.239507137
     0.083905952  0.313730943  0.035309333
     0.338800021  0.646907732  0.870614626
     0.403173366  0.213259791  0.994519715
     0.228110844  0.738890898  0.843370375
     0.265001977  0.269095570  0.003337578
     0.112324224  0.573761198  0.019162244
     0.777556876  0.181179896  0.160161947
     0.495849406  0.793668811  0.826470907
     0.629594924  0.846742066  0.804327693
     0.626145348  0.728107262  0.978503056
     0.648041970  0.548682127  0.980885974
     0.083461886  0.697571465  0.949881491
     0.147428441  0.546130265  0.937449165
     0.699536110  0.676113509  0.915883427
     0.687646019  0.715669072  0.865095417
     0.959902164  0.451387991  0.223413149
     0.074060756  0.564399818  0.215869787

  ion indices of the primitive-cell ions
   primitive index   ion index
                 1           1
                 2           2
                 3           3
                 4           4
                 5           5
                 6           6
                 7           7
                 8           8
                 9           9
                10          10
                11          11
                12          12
                13          13
                14          14
                15          15
                16          16
                17          17
                18          18
                19          19
                20          20
                21          21
                22          22
                23          23
                24          24
                25          25
                26          26
                27          27
                28          28
                29          29
                30          30
                31          31
                32          32
                33          33
                34          34
                35          35
                36          36
                37          37
                38          38
                39          39
                40          40
                41          41
                42          42
                43          43
                44          44
                45          45
                46          46
                47          47
                48          48
                49          49
                50          50
                51          51
                52          52
                53          53
                54          54
                55          55
                56          56
                57          57
                58          58
                59          59
                60          60
                61          61
                62          62
                63          63
                64          64
                65          65
                66          66
                67          67
                68          68
                69          69
                70          70
                71          71
                72          72
                73          73
                74          74
                75          75
                76          76
                77          77
                78          78
                79          79
                80          80
                81          81
                82          82
                83          83
                84          84
                85          85
                86          86
                87          87
                88          88
                89          89
                90          90
                91          91
                92          92
                93          93
                94          94
                95          95
                96          96
                97          97
                98          98
                99          99
               100         100
               101         101
               102         102
               103         103
               104         104
               105         105
               106         106
               107         107
               108         108
               109         109
               110         110
               111         111
               112         112
               113         113
               114         114
               115         115
               116         116
               117         117
               118         118
               119         119
               120         120
               121         121
               122         122
               123         123
               124         124
               125         125
               126         126
               127         127
               128         128
               129         129
               130         130
               131         131
               132         132
               133         133
               134         134
               135         135
               136         136
               137         137
               138         138
               139         139
               140         140
               141         141
               142         142
               143         143
               144         144
               145         145
               146         146
               147         147
               148         148
               149         149
               150         150
               151         151
               152         152
               153         153
               154         154
               155         155
               156         156
               157         157
               158         158
               159         159
               160         160
               161         161
               162         162
               163         163
               164         164
               165         165
               166         166
               167         167
               168         168
               169         169
               170         170
               171         171
               172         172
               173         173
               174         174
               175         175
               176         176
               177         177
               178         178
               179         179
               180         180
               181         181
               182         182
               183         183
               184         184
               185         185
               186         186
               187         187
               188         188
               189         189
               190         190
               191         191
               192         192
               193         193
               194         194
               195         195
               196         196
               197         197
               198         198
               199         199
               200         200
               201         201
               202         202
               203         203
               204         204
               205         205
               206         206
               207         207
               208         208
               209         209
               210         210
               211         211
               212         212
               213         213
               214         214
               215         215
               216         216
               217         217
               218         218
               219         219
               220         220
               221         221
               222         222
               223         223
               224         224
               225         225
               226         226
               227         227
               228         228
               229         229
               230         230
               231         231
               232         232
               233         233
               234         234
               235         235
               236         236
               237         237
               238         238
               239         239
               240         240
               241         241
               242         242
               243         243
               244         244
               245         245
               246         246

----------------------------------------------------------------------------------------

 
 
 KPOINTS: KPOINTS created by Atomic Simulation Env

Automatic generation of k-mesh.
 Grid dimensions read from file:
 generate k-points for:    2    2    1

 Generating k-lattice:

  Cartesian coordinates                     Fractional coordinates (reciprocal lattice)
     0.049307831  0.000000000  0.000000000     0.500000000  0.000000000  0.000000000
     0.000000000  0.056935779  0.000000000     0.000000000  0.500000000  0.000000000
     0.000000000  0.000000000  0.033188271     0.000000000  0.000000000  1.000000000

  Length of vectors
     0.049307831  0.056935779  0.033188271

  Shift w.r.t. Gamma in fractional coordinates (k-lattice)
     0.500000000  0.500000000  0.000000000

 
 Subroutine IBZKPT returns following result:
 ===========================================
 
 Found      2 irreducible k-points:
 
 Following reciprocal coordinates:
            Coordinates               Weight
  0.250000  0.250000  0.000000      2.000000
 -0.250000  0.250000  0.000000      2.000000
 
 Following cartesian coordinates:
            Coordinates               Weight
  0.024654  0.028468  0.000000      2.000000
 -0.024654  0.028468  0.000000      2.000000
 


--------------------------------------------------------------------------------------------------------




 Dimension of arrays:
   k-points           NKPTS =      2   k-points in BZ     NKDIM =      2   number of bands    NBANDS=    874
   number of dos      NEDOS =    301   number of ions     NIONS =    246
   non local maximal  LDIM  =      6   non local SUM 2l+1 LMDIM =     18
   total plane-waves  NPLWV = ******
   max r-space proj   IRMAX =   8746   max aug-charges    IRDMAX=  24571
   dimension x,y,z NGX =    96 NGY =   84 NGZ =  280
   dimension x,y,z NGXF=   192 NGYF=  168 NGZF=  560
   support grid    NGXF=   192 NGYF=  168 NGZF=  560
   ions per type =              96  50 100
   NGX,Y,Z   is equivalent  to a cutoff of  15.74, 15.90, 15.45 a.u.
   NGXF,Y,Z  is equivalent  to a cutoff of  31.48, 31.80, 30.90 a.u.

 SYSTEM =  unknown system                          
 POSCAR =  Cu O  H                                 

 Startparameter for this run:
   NWRITE =      2    write-flag & timer
   PREC   = accura    normal or accurate (medium, high low for compatibility)
   ISTART =      0    job   : 0-new  1-cont  2-samecut
   ICHARG =      2    charge: 1-file 2-atom 10-const
   ISPIN  =      1    spin polarized calculation?
   LNONCOLLINEAR =      F non collinear calculations
   LSORBIT =      F    spin-orbit coupling
   INIWAV =      1    electr: 0-lowe 1-rand  2-diag
   LASPH  =      T    aspherical Exc in radial PAW
 Electronic Relaxation 1
   ENCUT  =  800.0 eV  58.80 Ry    7.67 a.u.  23.39 20.25 69.49*2*pi/ulx,y,z
   ENINI  =  800.0     initial cutoff
   ENAUG  = 1000.0 eV  augmentation charge cutoff
   NELM   =    160;   NELMIN=  2; NELMDL= -5     # of ELM steps 
   EDIFF  = 0.1E-06   stopping-criterion for ELM
   LREAL  =      T    real-space projection
   NLSPLINE    = F    spline interpolate recip. space projectors
   LCOMPAT=      F    compatible to vasp.4.4
   GGA_COMPAT  = T    GGA compatible to vasp.4.4-vasp.4.6
   LMAXPAW     = -100 max onsite density
   LMAXMIX     =    2 max onsite mixed and CHGCAR
   VOSKOWN=      0    Vosko Wilk Nusair interpolation
   ROPT   =   -0.00025  -0.00025  -0.00025
 Ionic relaxation
   EDIFFG = 0.1E-05   stopping-criterion for IOM
   NSW    =      0    number of steps for IOM
   NBLOCK =      1;   KBLOCK =      1    inner block; outer block 
   IBRION =     -1    ionic relax: 0-MD 1-quasi-New 2-CG
   NFREE  =      0    steps in history (QN), initial steepest desc. (CG)
   ISIF   =      2    stress and relaxation
   IWAVPR =     10    prediction:  0-non 1-charg 2-wave 3-comb
   ISYM   =      2    0-nonsym 1-usesym 2-fastsym
   LCORR  =      T    Harris-Foulkes like correction to forces

   POTIM  = 0.5000    time-step for ionic-motion
   TEIN   =    0.0    initial temperature
   TEBEG  =    0.0;   TEEND  =   0.0 temperature during run
   SMASS  =  -3.00    Nose mass-parameter (am)
   estimated Nose-frequenzy (Omega)   =  0.10E-29 period in steps = 0.13E+47 mass=  -0.235E-26a.u.
   SCALEE = 1.0000    scale energy and forces
   NPACO  =    256;   APACO  = 10.0  distance and # of slots for P.C.
   PSTRESS=    0.0 pullay stress

  Mass of Ions in am
   POMASS =  63.55 16.00  1.00
  Ionic Valenz
   ZVAL   =  11.00  6.00  1.00
  Atomic Wigner-Seitz radii
   RWIGS  =  -1.00 -1.00 -1.00
  virtual crystal weights 
   VCA    =   1.00  1.00  1.00
   NELECT =    1456.0000    total number of electrons
   NUPDOWN=      -1.0000    fix difference up-down

 DOS related values:
   EMIN   =  10.00;   EMAX   =-10.00  energy-range for DOS
   EFERMI =   0.00;   METHOD = LEGACY      
   ISMEAR =     0;   SIGMA  =   0.10  broadening in eV -4-tet -1-fermi 0-gaus

 Electronic relaxation 2 (details)
   IALGO  =     68    algorithm
   LDIAG  =      T    sub-space diagonalisation (order eigenvalues)
   LSUBROT=      F    optimize rotation matrix (better conditioning)
   TURBO    =      0    0=normal 1=particle mesh
   IRESTART =      0    0=no restart 2=restart with 2 vectors
   NREBOOT  =      0    no. of reboots
   NMIN     =      0    reboot dimension
   EREF     =   0.00    reference energy to select bands
   IMIX   =      4    mixing-type and parameters
     AMIX     =   0.40;   BMIX     =  1.00
     AMIX_MAG =   1.60;   BMIX_MAG =  1.00
     AMIN     =   0.10
     WC   =   100.;   INIMIX=   1;  MIXPRE=   1;  MAXMIX= -45

 Intra band minimization:
   WEIMIN = 0.0000     energy-eigenvalue tresh-hold
   EBREAK =  0.29E-10  absolut break condition
   DEPER  =   0.30     relativ break condition  

   TIME   =   0.40     timestep for ELM

  volume/ion in A,a.u.               =      10.91        73.61
  Fermi-wavevector in a.u.,A,eV,Ry     =   1.335295  2.523342 24.259360  1.783013
  Thomas-Fermi vector in A             =   2.464010
 
 Write flags
   LWAVE        =      T    write WAVECAR
   LDOWNSAMPLE  =      F    k-point downsampling of WAVECAR
   LCHARG       =      T    write CHGCAR
   LVTOT        =      F    write LOCPOT, total local potential
   LVHAR        =      T    write LOCPOT, Hartree potential only
   WRT_POTENTIAL=  hartree ionic  ! write potential to hdf5 file
   LELF         =      F    write electronic localiz. function (ELF)
   LORBIT       =      0    0 simple, 1 ext, 2 COOP (PROOUT), +10 PAW based schemes


 Dipole corrections
   LMONO      =      F    monopole corrections only (constant potential shift)
   LDIPOL     =      F    correct potential (dipole corrections)
   IDIPOL     =      0    1-x, 2-y, 3-z, 4-all directions 
   EPSILON    =  1.0000000 bulk dielectric constant
   LVACPOTAV  =      F  vacuum potentials using an averaging scheme for the charge density
   VACPOTFLAT =  0.1000000 required flatness to determine vacuum potential
 Exchange correlation treatment:
   METAGGA = R2SCAN    functional components
   XC_C    = 1    coefficients multiplying the functional components
   LIBXC   =     F    Libxc                    
   VOSKOWN =     0    Vosko Wilk Nusair interpolation
   LHFCALC =     F    Hartree Fock is set to
   LHFONE  =     F    Hartree Fock one center treatment
   AEXX    =    0.0000 exact exchange contribution

 Parameters of functionals:
   R2SCAN:
     No parameter
 
 Accuracy and mixing parameters for tau-dependent meta-GGA functionals:
   LMAXTAU = 6
   LMIXTAU = T
 
 Van der Waals corrections
   IVDW    =     0    specifies the selected vdW correction

 Linear response parameters
   LEPSILON=     F    determine dielectric tensor
   LRPA    =     F    only Hartree local field effects (RPA)
   LNABLA  =     F    use nabla operator in PAW spheres
   LVEL    =     F    velocity operator in full k-point grid
   CSHIFT  =0.1000    complex shift for real part using Kramers Kronig
   OMEGAMAX=  -1.0    maximum frequency
   DEG_THRESHOLD= 0.2000000E-02 threshold for treating states as degnerate
   RTIME   =   -0.100 relaxation time in fs
  (WPLASMAI=    0.000 imaginary part of plasma frequency in eV, 0.658/RTIME)
   DFIELD  = 0.0000000 0.0000000 0.0000000 field for delta impulse in time
 
  Optional k-point grid parameters
   LKPOINTS_OPT  =     F    use optional k-point grid
   KPOINTS_OPT_MODE=     1    mode for optional k-point grid
 
 Orbital magnetization related:
   ORBITALMAG=     F  switch on orbital magnetization
   LCHIMAG   =     F  perturbation theory with respect to B field
   DQ        =  0.001000  dq finite difference perturbation B field
   LLRAUG    =     F  two centre corrections for induced B field
   LBONE     =     F  B-component reconstruction in AE one-centre
   LVGVCALC  =     T  calculate vGv susceptibility
   LVGVAPPL  =     F  apply vGv susceptibility instead of pGv for G=0

 Random number generation:
   RANDOM_GENERATOR = DEFAULT
   PCG_SEED         = not used


--------------------------------------------------------------------------------------------------------


 Static calculation
 charge density and potential will be updated during run
 non-spin polarized calculation
 RMM-DIIS sequential band-by-band and
  variant of blocked Davidson during initial phase
 perform sub-space diagonalisation
    before iterative eigenvector-optimisation
 modified Broyden-mixing scheme, WC =      100.0
 initial mixing is a Kerker type mixing with AMIX =  0.4000 and BMIX =      1.0000
 Hartree-type preconditioning will be used
 using additional bands           146
 real space projection scheme for non local part
 use partial core corrections
 calculate Harris-corrections to forces 
   (improved forces if not selfconsistent)
 use gradient corrections 
 use of overlap-Matrix (Vanderbilt PP)
 Gauss-broadening in eV      SIGMA  =   0.10


--------------------------------------------------------------------------------------------------------


  energy-cutoff  :      800.00
  volume of cell :     2683.21
      direct lattice vectors                 reciprocal lattice vectors
    10.140377178  0.000000000  0.000000000     0.098615661  0.000000000  0.000000000
     0.000000000  8.781824240  0.000000000     0.000000000  0.113871557  0.000000000
     0.000000000  0.000000000 30.131127158     0.000000000  0.000000000  0.033188271

  length of vectors
    10.140377178  8.781824240 30.131127158     0.098615661  0.113871557  0.033188271


 
 k-points in units of 2pi/SCALE and weight: KPOINTS created by Atomic Simulation Env
   0.02465392  0.02846789  0.00000000       0.500
  -0.02465392  0.02846789  0.00000000       0.500
 
 k-points in reciprocal lattice and weights: KPOINTS created by Atomic Simulation Env
   0.25000000  0.25000000  0.00000000       0.500
  -0.25000000  0.25000000  0.00000000       0.500
 
 position of ions in fractional coordinates (direct lattice) 
   0.70287031  0.12704194  0.33055650
   0.95079994  0.13302134  0.33328989
   0.18595561  0.11876234  0.33450458
   0.44045206  0.11498408  0.32959570
   0.82026929  0.38121123  0.33146420
   0.07599737  0.37790781  0.32904378
   0.32681033  0.36622915  0.33112203
   0.57349050  0.37100606  0.33340273
   0.93795426  0.64627005  0.33036799
   0.19537932  0.64441508  0.32561410
   0.44163545  0.62144036  0.32665721
   0.68492521  0.63259977  0.33276551
   0.07306257  0.89060767  0.32643020
   0.32003149  0.86737331  0.33236725
   0.57285936  0.87895177  0.32519129
   0.82848792  0.87781648  0.33116186
   0.56578467  0.19711622  0.39583650
   0.81828712  0.18894366  0.39874711
   0.07325536  0.21767459  0.39698814
   0.32267932  0.21486196  0.39735984
   0.69708847  0.45449896  0.39866746
   0.94396587  0.46859171  0.39406757
   0.19193763  0.47937079  0.39565397
   0.43376000  0.47102856  0.39459526
   0.81014344  0.70400521  0.40025054
   0.06556945  0.70364424  0.39631441
   0.30475789  0.71945188  0.39704456
   0.56294356  0.71803418  0.39564401
   0.93695134  0.95382916  0.39942747
   0.18673862  0.95291477  0.39852143
   0.44290660  0.95042212  0.39702464
   0.68345387  0.95963661  0.39844510
   0.56249979  0.04166663  0.46565135
   0.81250035  0.04166663  0.46565135
   0.06250004  0.04166663  0.46565135
   0.31250021  0.04166663  0.46565135
   0.68750007  0.29166719  0.46565135
   0.93749964  0.29166719  0.46565135
   0.18749993  0.29166719  0.46565135
   0.43750049  0.29166719  0.46565135
   0.81250035  0.54166650  0.46565135
   0.06250004  0.54166650  0.46565135
   0.31250021  0.54166650  0.46565135
   0.56249979  0.54166650  0.46565135
   0.93749964  0.79166695  0.46565135
   0.18749993  0.79166695  0.46565135
   0.43750049  0.79166695  0.46565135
   0.68750007  0.79166695  0.46565135
   0.68750007  0.12500022  0.53434775
   0.93749964  0.12500022  0.53434775
   0.18749993  0.12500022  0.53434775
   0.43750049  0.12500022  0.53434775
   0.81250035  0.37499953  0.53434775
   0.06250004  0.37499953  0.53434775
   0.31250021  0.37499953  0.53434775
   0.56249979  0.37499953  0.53434775
   0.93749964  0.62499998  0.53434775
   0.18749993  0.62499998  0.53434775
   0.43750049  0.62499998  0.53434775
   0.68750007  0.62499998  0.53434775
   0.06250004  0.87500043  0.53434775
   0.31250021  0.87500043  0.53434775
   0.56249979  0.87500043  0.53434775
   0.81250035  0.87500043  0.53434775
   0.56857550  0.23270905  0.60687740
   0.80134495  0.20858195  0.60969508
   0.07060201  0.20421270  0.60487614
   0.31958969  0.20677367  0.60273550
   0.68741920  0.47643062  0.60870607
   0.93221582  0.46149865  0.60566271
   0.19639408  0.45286035  0.60026629
   0.43913159  0.45830683  0.60376434
   0.81988568  0.70624962  0.59930051
   0.07149192  0.69895842  0.60272886
   0.30509516  0.70404051  0.60521466
   0.55379794  0.71508377  0.60319018
   0.93240319  0.95358319  0.60136151
   0.19601736  0.96602480  0.60367141
   0.43340597  0.96717604  0.60451439
   0.67686536  0.96003060  0.59971869
   0.57373408  0.04862350  0.66972602
   0.81531681  0.02670322  0.67002472
   0.05398695  0.03903232  0.67102700
   0.31271815  0.03184555  0.67359578
   0.68489070  0.29479069  0.67885612
   0.93239431  0.28851523  0.67312450
   0.19365355  0.28736740  0.67330040
   0.44190368  0.28847537  0.67276275
   0.81984919  0.52907572  0.67071835
   0.06248239  0.53564611  0.66880007
   0.31447154  0.55297850  0.67404714
   0.55200018  0.54156971  0.67385796
   0.94368679  0.79253010  0.66949371
   0.18146958  0.79077989  0.67315437
   0.43462387  0.79120919  0.67087434
   0.68992996  0.77831095  0.66698135
   0.68403373  0.86930002  0.02675940
   0.60817560  0.91230475  0.25578300
   0.08061653  0.22283980  0.02007997
   0.05533187  0.11548398  0.88859271
   0.86401323  0.47472141  0.84253071
   0.14269982  0.39855614  0.87174966
   0.85366253  0.91964150  0.09558985
   0.38251634  0.38296485  0.21440983
   0.21873348  0.12697020  0.22991075
   0.21479576  0.63754521  0.24431844
   0.90716843  0.22498970  0.22926988
   0.50317359  0.28060912  0.82719441
   0.64464466  0.20510545  0.19199979
   0.37992078  0.87833117  0.20465647
   0.31471216  0.05665338  0.77533110
   0.07987208  0.72038905  0.13222307
   0.56085488  0.14808541  0.02389054
   0.35807840  0.92319087  0.11456657
   0.06957572  0.99769739  0.78243339
   0.87738354  0.94465566  0.84770144
   0.59305486  0.02204941  0.77893867
   0.84740240  0.81045348  0.22790087
   0.71135125  0.39261660  0.00400695
   0.06422394  0.94937906  0.18405783
   0.22440585  0.42462476  0.79204471
   0.05976385  0.67498732  0.79478275
   0.41304972  0.46267836  0.90958761
   0.90794749  0.34839231  0.94346288
   0.82452653  0.60639793  0.74769523
   0.75354889  0.19601394  0.84733969
   0.18518739  0.90385662  0.03406876
   0.51320773  0.69313161  0.07558927
   0.55340644  0.53507220  0.76352271
   0.75948457  0.63228662  0.13614658
   0.97698813  0.30905538  0.76152478
   0.31942796  0.40567198  0.07600745
   0.48383210  0.20604261  0.11575903
   0.18911229  0.90298209  0.93664269
   0.84971889  0.19587502  0.13614791
   0.72223645  0.29828199  0.75008478
   0.85884478  0.44231471  0.07286916
   0.62867090  0.57579153  0.21083878
   0.30449360  0.74377713  0.86192926
   0.33157445  0.25980365  0.97814462
   0.10071716  0.54400428  0.04980763
   0.58529085  0.76621210  0.82115415
   0.61899275  0.63675722  0.95938661
   0.08304504  0.58556285  0.95780685
   0.75324220  0.69886846  0.88933613
   0.98831629  0.54129983  0.20598997
   0.76570229  0.87913852  0.04291874
   0.65080913  0.97322604  0.02623506
   0.68907397  0.86330582  0.24401643
   0.53785475  0.86870220  0.23754206
   0.40772349  0.04521293  0.78213802
   0.02312330  0.25432301  0.99595634
   0.00986738  0.03573768  0.86938666
   0.12496478  0.05826921  0.90166557
   0.89949613  0.53507675  0.81951465
   0.82429675  0.55698678  0.86054530
   0.47175070  0.33129449  0.21955933
   0.06000970  0.45317577  0.86620390
   0.61710920  0.12030416  0.21144878
   0.94701014  0.90710424  0.09564959
   0.81738380  0.20741021  0.24071220
   0.31643103  0.30153530  0.21950755
   0.15598927  0.06472323  0.21102496
   0.26317364  0.73038925  0.24139820
   0.26807188  0.55117022  0.23226479
   0.83912461  0.87069381  0.87282165
   0.95245274  0.23946277  0.25687655
   0.77646520  0.37674974  0.97707264
   0.52472506  0.36790761  0.80756355
   0.45771670  0.32617824  0.85422294
   0.10986475  0.28532682  0.87368122
   0.57197971  0.19949727  0.16787391
   0.37361825  0.88126906  0.17166865
   0.33928521  0.97817603  0.21035356
   0.85172867  0.02574192  0.10847520
   0.30558035  0.04800825  0.74459544
   0.02336964  0.63756913  0.14606158
   0.61555205  0.23513907  0.01739696
   0.50889527  0.17656468  0.04906753
   0.40841972  0.83391444  0.10606507
   0.27648676  0.91366210  0.09706275
   0.99857108  0.01139137  0.80440071
   0.14520860  0.04515577  0.79728514
   0.09018136  0.67929850  0.10171442
   0.81748932  0.03768374  0.84915841
   0.60041652  0.01412415  0.74724055
   0.64695029  0.11202661  0.78362817
   0.20008822  0.12388998  0.26171440
   0.86979210  0.80488288  0.25857479
   0.89547359  0.71814008  0.22132760
   0.75398379  0.42904753  0.03232156
   0.99965710  0.89506460  0.20110101
   0.19424820  0.42407704  0.82425061
   0.13802248  0.61688094  0.78599781
   0.27879436  0.33765422  0.79065413
   0.08509200  0.88122123  0.16070192
   0.06634339  0.77708570  0.78011021
   0.49355955  0.49963081  0.92527903
   0.36072623  0.40624703  0.93201625
   0.97388389  0.43242041  0.94212539
   0.91910289  0.61278726  0.75805329
   0.76683538  0.30120166  0.85323393
   0.90036690  0.28634825  0.91842233
   0.65227948  0.19343817  0.84783088
   0.12651009  0.83171671  0.01891131
   0.14481513  0.99982456  0.02836724
   0.57891831  0.75398685  0.05872034
   0.46638798  0.56418688  0.75105720
   0.55807392  0.64361229  0.09997303
   0.59018219  0.61793539  0.78114901
   0.00848578  0.50825089  0.05202095
   0.74002671  0.64866591  0.16649692
   0.77152357  0.73956843  0.12476301
   0.01304843  0.21323246  0.77302784
   0.37625918  0.48615753  0.06735759
   0.43215552  0.10918939  0.11226663
   0.23477825  0.45696086  0.06845678
   0.05553166  0.37344177  0.76905520
   0.42453155  0.28537579  0.11497977
   0.23681565  0.84127737  0.91595644
   0.25403098  0.94779738  0.95618063
   0.79171315  0.70666980  0.75097091
   0.67430135  0.39564331  0.75452869
   0.86826751  0.33776126  0.08439412
   0.81505844  0.31243736  0.75375209
   0.92013934  0.19169480  0.15652219
   0.84889249  0.50231704  0.10117544
   0.57524389  0.50885441  0.19337179
   0.63040653  0.52858607  0.23950714
   0.08390595  0.31373094  0.03530933
   0.33880002  0.64690773  0.87061463
   0.40317337  0.21325979  0.99451972
   0.22811084  0.73889090  0.84337037
   0.26500198  0.26909557  0.00333758
   0.11232422  0.57376120  0.01916224
   0.77755688  0.18117990  0.16016195
   0.49584941  0.79366881  0.82647091
   0.62959492  0.84674207  0.80432769
   0.62614535  0.72810726  0.97850306
   0.64804197  0.54868213  0.98088597
   0.08346189  0.69757146  0.94988149
   0.14742844  0.54613027  0.93744917
   0.69953611  0.67611351  0.91588343
   0.68764602  0.71566907  0.86509542
   0.95990216  0.45138799  0.22341315
   0.07406076  0.56439982  0.21586979
 
 position of ions in cartesian coordinates  (Angst):
   7.12737000  1.11566000  9.96004000
   9.64147000  1.16817000 10.04240000
   1.88566000  1.04295000 10.07900000
   4.46635000  1.00977000  9.93109000
   8.31784000  3.34773000  9.98739000
   0.77064200  3.31872000  9.91446000
   3.31398000  3.21616000  9.97708000
   5.81541000  3.25811000 10.04580000
   9.51121000  5.67543000  9.95436000
   1.98122000  5.65914000  9.81112000
   4.47835000  5.45738000  9.84255000
   6.94540000  5.55538000 10.02660000
   0.74088200  7.82116000  9.83571000
   3.24524000  7.61712000 10.01460000
   5.80901000  7.71880000  9.79838000
   8.40118000  7.70883000  9.97828000
   5.73727000  1.73104000 11.92700000
   8.29774000  1.65927000 12.01470000
   0.74283700  1.91158000 11.96170000
   3.27209000  1.88688000 11.97290000
   7.06874000  3.99133000 12.01230000
   9.57217000  4.11509000 11.87370000
   1.94632000  4.20975000 11.92150000
   4.39849000  4.13649000 11.88960000
   8.21516000  6.18245000 12.06000000
[...]
      0.63377      0.36591     14.03060         0.017885      0.122742      0.061977
      3.16887      0.36591     14.03060         0.062791      0.017383     -0.060182
      6.97151      2.56137     14.03060        -0.021016     -0.135376      0.011442
      9.50660      2.56137     14.03060         0.032042      0.086394     -0.138351
      1.90132      2.56137     14.03060         0.115805      0.135862     -0.025769
      4.43642      2.56137     14.03060         0.142414      0.107370     -0.064477
      8.23906      4.75682     14.03060         0.152198     -0.144949      0.273737
      0.63377      4.75682     14.03060        -0.005426     -0.099266     -0.002810
      3.16887      4.75682     14.03060         0.071016      0.023497      0.005979
      5.70396      4.75682     14.03060        -0.026187      0.011201     -0.227778
      9.50660      6.95228     14.03060         0.102937     -0.131969      0.186965
      1.90132      6.95228     14.03060        -0.076659     -0.082203      0.263124
      4.43642      6.95228     14.03060        -0.015113     -0.128340      0.054369
      6.97151      6.95228     14.03060        -0.109719     -0.005895      0.230708
      6.97151      1.09773     16.10050         0.021757      0.252770      0.140319
      9.50660      1.09773     16.10050        -0.057571      0.164064      0.293205
      1.90132      1.09773     16.10050        -0.007223      0.062940      0.006566
      4.43642      1.09773     16.10050         0.180313      0.061287      0.108568
      8.23906      3.29318     16.10050        -0.076457     -0.012286      0.373075
      0.63377      3.29318     16.10050        -0.162707     -0.026193      0.151016
      3.16887      3.29318     16.10050         0.196463     -0.052883     -0.224409
      5.70396      3.29318     16.10050         0.109990      0.119940      0.150632
      9.50660      5.48864     16.10050         0.207237     -0.154101     -0.210162
      1.90132      5.48864     16.10050         0.068242      0.023711     -0.170497
      4.43642      5.48864     16.10050        -0.066027      0.005094      0.103667
      6.97151      5.48864     16.10050        -0.139875     -0.069616      0.033235
      0.63377      7.68410     16.10050         0.084048      0.016257      0.126581
      3.16887      7.68410     16.10050         0.042489     -0.030985      0.153866
      5.70396      7.68410     16.10050        -0.238866     -0.036601     -0.228316
      8.23906      7.68410     16.10050        -0.072264      0.090828     -0.293546
      5.76557      2.04361     18.28590        -0.130940     -0.856205     -0.448660
      8.12594      1.83173     18.37080         0.616225      0.158498     -0.706237
      0.71593      1.79336     18.22560        -0.602519      0.340237     -0.090933
      3.24076      1.81585     18.16110        -0.158778      0.324807      0.262569
      6.97069      4.18393     18.34100        -0.245521     -0.441472     -0.582409
      9.45302      4.05280     18.24930         0.512856     -0.713353     -0.792006
      1.99151      3.97694     18.08670        -0.480644     -0.101659      0.689908
      4.45296      4.02477     18.19210        -0.174515      0.399654      0.051676
      8.31395      6.20216     18.05760        -0.356114      0.288825      0.677590
      0.72496      6.13813     18.16090        -0.598352      0.497344     -0.031689
      3.09378      6.18276     18.23580         0.588413      0.360890     -0.331918
      5.61572      6.27974     18.17480         0.152465     -0.266919     -0.132316
      9.45492      8.37420     18.11970         0.371918      0.328229      0.134533
      1.98769      8.48346     18.18930        -0.705533     -0.573716      0.051520
      4.39490      8.49357     18.21470         0.473408     -0.340874     -0.181732
      6.86367      8.43082     18.07020         0.508958      0.021229      0.533654
      5.81788      0.42700     20.17960        -0.463990     -0.588405     -0.149201
      8.26762      0.23450     20.18860        -0.351490      0.067814      0.083946
      0.54745      0.34277     20.21880         0.575252      0.058527      0.012646
      3.17108      0.27966     20.29620         0.020550      0.443615     -0.442578
      6.94505      2.58880     20.45470         0.227181     -0.213998      0.141842
      9.45483      2.53369     20.28200         0.763599     -0.340396     -0.009842
      1.96372      2.52361     20.28730        -0.065807      0.103638     -0.379331
      4.48107      2.53334     20.27110        -0.626008      0.049444      0.041521
      8.31358      4.64625     20.20950        -0.278122      1.051326      0.923469
      0.63360      4.70395     20.15170         0.580526     -0.008331      0.135129
      3.18886      4.85616     20.30980        -0.489333     -0.744836     -0.189934
      5.59749      4.75597     20.30410         0.366738      0.084537     -0.139073
      9.56934      6.95986     20.17260        -0.312700     -0.469807     -0.185586
      1.84017      6.94449     20.28290         0.267873      0.055891     -0.120947
      4.40725      6.94826     20.21420         0.252007      0.318375      0.132395
      6.99615      6.83499     20.09690        -0.055123      0.393086     -0.075585
      6.93636      7.63404      0.80629        -0.220863     -0.391521     -0.419603
      6.16713      8.01170      7.70703         0.338479     -0.169210     -0.465619
      0.81748      1.95694      0.60503        -0.513485     -1.711564     -1.393506
      0.56109      1.01416     26.77430        -0.795042     -0.055161     -1.519298
      8.76142      4.16892     25.38640        -0.222363      0.137117      1.213182
      1.44703      3.50005     26.26680        -1.196303     -1.083284      0.353795
      8.65646      8.07613      2.88023        -0.131377      1.026185      0.189106
      3.87886      3.36313      6.46041         1.404989     -1.178906      0.391764
      2.21804      1.11503      6.92747         0.407263      0.325360     -0.686400
      2.17811      5.59881      7.36159        -0.240134     -1.727314      0.213373
      9.19903      1.97582      6.90816        -1.164219      0.039871      0.091945
      5.10237      2.46426     24.92430        -0.857441      1.283582      1.250062
      6.53694      1.80120      5.78517        -2.180320     -0.938117     -0.554821
      3.85254      7.71335      6.16653        -0.085234      0.665682     -0.821008
      3.19130      0.49752     23.36160         0.214919      0.325325      2.439875
      0.80993      6.32633      3.98403        -1.021918     -2.383159     -0.966046
      5.68728      1.30046      0.71985        -0.453053     -0.882409     -0.517665
      3.63105      8.10730      3.45202        -0.908599      0.245213     -0.208616
      0.70552      8.76160     23.57560        -0.695334      0.827829      1.014316
      8.89700      8.29580     25.54220        -1.620873     -1.228995      2.056698
      6.01380      0.19363     23.47030         0.370926      0.131371      0.156987
      8.59298      7.11726      6.86691         0.189229      0.126419     -0.620767
      7.21337      3.44789      0.12073         0.617829      0.186773     -1.407136
      0.65126      8.33728      5.54587         0.052937      1.437999      0.608027
      2.27556      3.72898     23.86520        -1.067810      1.150469      0.439816
      0.60603      5.92762     23.94770         0.391861      0.590998     -0.640114
      4.18848      4.06316     27.40690         0.521346      0.181823      0.530091
      9.20693      3.05952     28.42760         0.182274      1.524846      2.353388
      8.36101      5.32528     22.52890         1.606313     -1.050412      0.273975
      7.64127      1.72136     25.53130        -2.829352     -0.954352      0.384465
      1.87787      7.93751      1.02653        -0.381807     -1.236224     -0.085362
      5.20412      6.08696      2.27759        -0.267186      0.013979      0.122420
      5.61175      4.69891     23.00580        -0.754905     -0.561236     -0.497470
      7.70146      5.55263      4.10225         0.387655      1.826350     -2.060213
      9.90703      2.71407     22.94560         1.695277      0.191447      0.562081
      3.23912      3.56254      2.29019        -1.197175      0.148817     -0.189063
      4.90624      1.80943      3.48795         1.605305     -3.178194      0.280401
      1.91767      7.92983     28.22210        -0.402037      0.144537      0.525082
      8.61647      1.72014      4.10229        -1.892056     -0.475727      0.598394
      7.32375      2.61946     22.60090        -2.083108      0.021868     -0.715217
      8.70901      3.88433      2.19563         0.574891     -0.058308      1.342196
      6.37496      5.05650      6.35281         0.053246      0.346840     -0.080092
      3.08768      6.53172     25.97090         0.497263      1.434300      0.458878
      3.36229      2.28155     29.47260        -1.623474      0.086581      1.686037
      1.02131      4.77735      1.50076        -0.514343      0.152115      0.093940
      5.93507      6.72874     24.74230         1.351997     -0.952036     -0.032180
      6.27682      5.59189     28.90740         0.320608     -0.682039      1.950541
      0.84211      5.14231     28.85980        -0.074415      1.945909     -0.261507
      7.63816      6.13734     26.79670        -0.291109      0.405533     -1.156889
     10.02190      4.75360      6.20671        -1.935362     -0.933597     -0.110499
      7.76451      7.72044      1.29319         0.281857     -0.018584      0.442547
      6.59945      8.54670      0.79049        -0.468614      0.313551     -0.075410
      6.98747      7.58140      7.35249        -0.334974      0.127792      0.180869
      5.45405      7.62879      7.15741        -0.406441      0.143103     -0.096632
      4.13447      0.39705     23.56670         0.167198      0.251259     -0.150528
      0.23448      2.23342     30.00929        -0.065829     -0.586109     -0.430870
      0.10006      0.31384     26.19560        -0.135803      0.965170      0.849421
      1.26719      0.51171     27.16820         0.702797     -0.454076      0.829153
      9.12123      4.69895     24.69290         0.524166      0.211031     -1.159466
      8.35868      4.89136     25.92920        -0.035952     -0.276215      0.485849
      4.78373      2.90937      6.61557        -2.190921      0.892860     -0.176311
      0.60852      3.97971     26.09970         0.004881     -0.278627      0.064844
      6.25772      1.05649      6.37119         0.452217      0.375717     -0.231050
      9.60304      7.96603      2.88203         0.680685     -0.708934      0.024003
      8.28858      1.82144      7.25293         0.649549      0.201822     -0.557659
      3.20873      2.64803      6.61401         0.505907      0.059538     -0.167702
      1.58179      0.56839      6.35842         0.016666      0.201972      0.917517
      2.66868      6.41415      7.27360         0.673598      0.510618     -0.692553
      2.71835      4.84028      6.99840         0.127993      1.106883      0.523261
      8.50904      7.64628     26.29910         1.066747      1.456119     -2.206033
      9.65823      2.10292      7.73998         0.690641     -0.112389      0.577865
      7.87365      3.30855     29.44030        -0.752012      0.334566      2.253767
      5.32091      3.23090     24.33280        -0.307010     -0.571208      0.620111
      4.64142      2.86444     25.73870         0.893757     -0.408549     -1.454591
      1.11407      2.50569     26.32500         0.533487      1.379021      0.132056
      5.80009      1.75195      5.05823         1.334486      0.269024      0.659384
      3.78863      7.73915      5.17257         0.029041     -0.408304      0.726515
      3.44048      8.59017      6.33819         0.037592     -0.305126      0.657645
      8.63685      0.22606      3.26848        -0.574690     -0.515075     -0.064813
      3.09870      0.42160     22.43550        -0.138131     -0.213043     -1.872528
      0.23698      5.59902      4.40100         0.991129      1.424349     -0.252350
      6.24193      2.06495      0.52419         0.496304      0.736189     -0.205409
      5.16039      1.55056      1.47846         0.080904      0.139845      0.863525
      4.14153      7.32329      3.19586         0.439753     -0.309178     -0.614210
      2.80368      8.02362      2.92461         0.639902      0.030754      0.274339
     10.12589      0.10004     24.23750         0.122906     -0.717977     -0.489862
      1.47247      0.39655     24.02310         0.208398     -0.571046     -0.630779
      0.91447      5.96548      3.06477         0.202489      0.486612      0.808635
      8.28965      0.33093     25.58610         0.842323     -0.689644      0.044736
      6.08845      0.12404     22.51520        -0.093817     -0.337600     -0.789121
      6.56032      0.98380     23.61160         0.006094      0.286260      0.216273
      2.02897      1.08798      7.88575        -0.294069     -0.346795     -0.476942
      8.82002      7.06834      7.79115         0.098458      0.702820      1.674239
      9.08044      6.30658      6.66885        -0.031951     -1.180449     -1.078272
      7.64568      3.76782      0.97389         0.204893     -0.480472     -1.162433
     10.13690      7.86030      6.05940        -0.590320      0.157063      0.411853
      1.96975      3.72417     24.83560         0.402504     -0.249895     -0.488517
      1.39960      5.41734     23.68300        -0.297983      0.179700     -0.181633
      2.82708      2.96522     23.82330         0.915801     -1.078460     -0.362615
      0.86287      7.73873      4.84213         0.448572     -0.863712     -0.830121
      0.67275      6.82423     23.50560         0.111486     -0.696340      0.678021
      5.00488      4.38767     27.87970        -1.246617     -0.281857     -0.334291
      3.65790      3.56759     28.08270         0.802549      0.190220     -0.363028
      9.87555      3.79744     28.38730        -0.901261     -0.810538     -0.550953
      9.32005      5.38139     22.84100        -1.144027      0.154380     -0.369151
      7.77600      2.64510     25.70890         0.883446      1.055807     -0.299413
      9.13006      2.51466     27.67310         0.499524     -0.738954     -1.534068
      6.61436      1.69874     25.54610         1.692859      0.115730     -0.295876
      1.28286      7.30399      0.56982         0.670613      0.594849      0.494946
      1.46848      8.78028      0.85474        -0.341367      0.966980     -0.116043
      5.87045      6.62138      1.76931        -0.136866     -0.217899      0.334487
      4.72935      4.95459     22.63020         0.947238     -0.085997      0.566475
      5.65908      5.65209      3.01230         0.395798      0.166187     -0.249458
      5.98467      5.42660     23.53690        -0.588350      0.339419      0.168151
      0.08605      4.46337      1.56745        -0.037874      0.125071      0.307310
      7.50415      5.69647      5.01674        -0.275626     -0.376020      1.425892
      7.82354      6.49476      3.75925         0.154448     -1.343046      0.292497
      0.13232      1.87257     23.29220        -0.559851     -0.194893     -0.548955
      3.81541      4.26935      2.02956         1.163026      0.606629     -0.193269
      4.38222      0.95888      3.38272         0.474801      0.864268      0.310931
      2.38074      4.01295      2.06268         0.417454     -0.709719      0.483880
      0.56311      3.27950     23.17250        -0.698810     -0.197125     -0.456830
      4.30491      2.50612      3.46447        -2.074508      2.016236     -0.205547
      2.40140      7.38795     27.59880         0.686935     -0.344532     -0.761386
      2.57597      8.32339     28.81080        -0.069181     -0.093176      0.044333
      8.02827      6.20585     22.62760        -0.267468      1.052569     -0.038763
      6.83767      3.47447     22.73480         0.561358     -0.493690      0.097987
      8.80456      2.96616      2.54289        -0.224510      0.437958      0.012569
      8.26500      2.74377     22.71140         1.031886      0.459147      0.488655
      9.33056      1.68343      4.71619         1.578700      0.000902      0.638314
      8.60809      4.41126      3.04853        -0.479951     -0.306403     -0.821430
      5.83319      4.46867      5.82651        -0.221504     -0.122036     -0.178894
      6.39256      4.64195      7.21662         0.099096     -0.064820      0.468664
      0.85084      2.75513      1.06391         0.449775      2.043806      1.813422
      3.43556      5.68103     26.23260        -0.258717     -1.010469      0.038914
      4.08833      1.87281     29.96600         0.679126     -0.022483     -0.355856
      2.31313      6.48881     25.41170        -0.257670     -0.628088     -0.277625
      2.68722      2.36315      0.10056         1.011321     -0.103528     -1.841697
      1.13901      5.03867      0.57738         0.039013     -0.069358     -0.464507
      7.88472      1.59109      4.82586         0.466788      0.530611     -1.538173
      5.02810      6.96986     24.90250        -0.717166      0.430048      0.057778
      6.38433      7.43594     24.23530        -0.746588      0.481313      0.271595
      6.34935      6.39411     29.48340        -0.039694     -0.589410     -0.436149
      6.57139      4.81843     29.55520        -0.420138      1.130221     -1.210616
      0.84634      6.12595     28.62100        -0.084667     -1.474244      0.393363
      1.49498      4.79602     28.24640         0.499509     -0.376755     -0.301492
      7.09356      5.93751     27.59660         0.102843     -0.139435      0.377946
      6.97299      6.28488     26.06630         0.368514      0.080403      0.607299
      9.73377      3.96401      6.73169         0.079536      0.609288     -0.829211
      0.75100      4.95646      6.50440         1.501230      0.600382      0.725551
 -----------------------------------------------------------------------------------
    total drift:                                0.007236      0.039384     -0.023982


--------------------------------------------------------------------------------------------------------



  FREE ENERGIE OF THE ION-ELECTRON SYSTEM (eV)
  ---------------------------------------------------
  free  energy   TOTEN  =     -1812.16169033 eV

  energy  without entropy=    -1811.92711039  energy(sigma->0) =    -1812.04440036
 


--------------------------------------------------------------------------------------------------------


    POTLOK:  cpu time     11.9292: real time     11.9532


--------------------------------------------------------------------------------------------------------


 writing wavefunctions
     LOOP+:  cpu time    648.2909: real time    649.5529
    4ORBIT:  cpu time      0.0000: real time      0.0000

 total amount of memory used by VASP MPI-rank0  3314079. kBytes
=======================================================================

   base      :      30000. kBytes
   nonlr-proj:     189000. kBytes
   fftplans  :     312780. kBytes
   grid      :     814785. kBytes
   one-center:       3825. kBytes
   wavefun   :    1963689. kBytes
 
  
  
 General timing and accounting informations for this job:
 ========================================================
  
                  Total CPU time used (sec):      716.404
                            User time (sec):      697.733
                          System time (sec):       18.671
                         Elapsed time (sec):      718.405
  
                   Maximum memory used (kb):     4890468.
                   Average memory used (kb):          N/A
  
                          Minor page faults:      4346895
                          Major page faults:         4060
                 Voluntary context switches:        22407
