246
Lattice="10.140377178 0.0 0.0 0.0 8.78182424 0.0 0.0 0.0 30.131127158" Properties=species:S:1:pos:R:3:initial_charges:R:1:forces:R:3 NELECT0=1456.0 NELECT=1456.0 stress="0.012205982627705062 0.0019611508239529046 -0.001430260540723526 0.0019611508239529046 0.013016423863173626 -0.001877383529974425 -0.001430260540723526 -0.001877383529974425 0.006998941224345695" free_energy=-1812.16169033 energy=-1812.04440036 pbc="T T T"
Cu       7.12737000       1.11566000       9.96004000      -0.02741000      -0.17093100       0.07703100      -0.08228800
Cu       9.64147000       1.16817000      10.04240000      -0.07209300      -0.51340900      -0.10418400      -0.41304000
Cu       1.88566000       1.04295000      10.07900000      -0.10048200       1.08281100       0.57905300      -0.43233200
Cu       4.46635000       1.00977000       9.93109000      -0.01304800       0.00813900       0.36176900       0.06892800
Cu       8.31784000       3.34773000       9.98739000      -0.06492100       0.01841200      -0.07521800      -0.25414900
Cu       0.77064000       3.31872000       9.91446000      -0.04159200      -0.13351300       0.23086800       0.06686300
Cu       3.31398000       3.21616000       9.97708000      -0.02252400      -0.44273200       0.18401200      -0.47965300
Cu       5.81541000       3.25811000      10.04580000      -0.07407200      -0.11496300       0.13788300      -0.45358600
Cu       9.51121000       5.67543000       9.95436000      -0.05875900       0.27458100      -0.80292900      -0.21773200
Cu       1.98122000       5.65914000       9.81112000       0.11410100      -0.42834300      -0.93235600      -0.29400600
Cu       4.47835000       5.45738000       9.84255000       0.00692900       0.09878000       0.09080400       0.25398800
Cu       6.94540000       5.55538000      10.02660000      -0.05079300       0.56275400      -0.45918100      -0.29052800
Cu       0.74088000       7.82116000       9.83571000      -0.01540800      -0.42840100      -0.68022200       0.28278900
Cu       3.24524000       7.61712000      10.01460000      -0.05176200       0.16638300       0.92385100      -0.53034600
Cu       5.80901000       7.71880000       9.79838000       0.17377500       0.00590900      -0.02635100      -0.07045900
Cu       8.40118000       7.70883000       9.97828000      -0.06247300      -0.51693800       0.48447900       0.29676200
Cu       5.73727000       1.73104000      11.92700000       0.02867200      -0.03477100       0.64931400       0.33576600
Cu       8.29774000       1.65927000      12.01470000       0.01714300      -0.01539000       1.25689900      -0.10226100
Cu       0.74284000       1.91158000      11.96170000       0.00564100      -0.29482400       0.08527500       0.68760700
Cu       3.27209000       1.88688000      11.97290000       0.02717600      -0.33511200      -0.32092800       0.26630100
Cu       7.06874000       3.99133000      12.01230000       0.01734200      -0.42388400      -0.09325600       0.00076800
Cu       9.57217000       4.11509000      11.87370000       0.01521500      -0.05346700      -0.64503800       0.54605100
Cu       1.94632000       4.20975000      11.92150000       0.01821400       0.05119700      -1.07616100      -0.06672700
Cu       4.39849000       4.13649000      11.88960000       0.02298600       0.62871200      -0.13148700       0.70086100
Cu       8.21516000       6.18245000      12.06000000       0.01442100       0.13834600       0.41661500      -0.44133900
Cu       0.66490000       6.17928000      11.94140000       0.03202200      -0.36911100       0.85323200       0.00779400
Cu       3.09036000       6.31810000      11.96340000       0.01576200       0.84373800      -0.68515400       0.24574300
Cu       5.70846000       6.30565000      11.92120000       0.03164800      -0.18648600      -0.58085000       0.23685600
Cu       9.50104000       8.37636000      12.03520000       0.03340000       0.44911100      -0.10103800      -0.24065100
Cu       1.89360000       8.36833000      12.00790000       0.01737500      -0.07276400       0.59660000       0.07967100
Cu       4.49124000       8.34644000      11.96280000       0.01854300      -0.34633600       0.62269600       0.03412300
Cu       6.93048000       8.42736000      12.00560000       0.02928000       0.48371200      -0.47865200      -0.42871300
Cu       5.70396000       0.36591000      14.03060000      -0.01845500      -0.07603900       0.02320000       0.23172500
Cu       8.23906000       0.36591000      14.03060000       0.00733800      -0.06571700      -0.17439700       0.45201900
Cu       0.63377000       0.36591000      14.03060000       0.00834000       0.01788500       0.12274200       0.06197700
Cu       3.16887000       0.36591000      14.03060000       0.03912800       0.06279100       0.01738300      -0.06018200
Cu       6.97151000       2.56137000      14.03060000      -0.02350700      -0.02101600      -0.13537600       0.01144200
Cu       9.50660000       2.56137000      14.03060000       0.02797700       0.03204200       0.08639400      -0.13835100
Cu       1.90132000       2.56137000      14.03060000      -0.00221800       0.11580500       0.13586200      -0.02576900
Cu       4.43642000       2.56137000      14.03060000      -0.00077900       0.14241400       0.10737000      -0.06447700
Cu       8.23906000       4.75682000      14.03060000       0.00141500       0.15219800      -0.14494900       0.27373700
Cu       0.63377000       4.75682000      14.03060000       0.00316300      -0.00542600      -0.09926600      -0.00281000
Cu       3.16887000       4.75682000      14.03060000      -0.03094500       0.07101600       0.02349700       0.00597900
Cu       5.70396000       4.75682000      14.03060000       0.02397200      -0.02618700       0.01120100      -0.22777800
Cu       9.50660000       6.95228000      14.03060000       0.03132800       0.10293700      -0.13196900       0.18696500
Cu       1.90132000       6.95228000      14.03060000      -0.01818200      -0.07665900      -0.08220300       0.26312400
Cu       4.43642000       6.95228000      14.03060000       0.00380000      -0.01511300      -0.12834000       0.05436900
Cu       6.97151000       6.95228000      14.03060000       0.00491700      -0.10971900      -0.00589500       0.23070800
Cu       6.97151000       1.09773000      16.10050000      -0.02862000       0.02175700       0.25277000       0.14031900
Cu       9.50660000       1.09773000      16.10050000       0.02838400      -0.05757100       0.16406400       0.29320500
Cu       1.90132000       1.09773000      16.10050000       0.00868100      -0.00722300       0.06294000       0.00656600
Cu       4.43642000       1.09773000      16.10050000       0.01040600       0.18031300       0.06128700       0.10856800
Cu       8.23906000       3.29318000      16.10050000       0.00222700      -0.07645700      -0.01228600       0.37307500
Cu       0.63377000       3.29318000      16.10050000       0.02085600      -0.16270700      -0.02619300       0.15101600
Cu       3.16887000       3.29318000      16.10050000      -0.01913600       0.19646300      -0.05288300      -0.22440900
Cu       5.70396000       3.29318000      16.10050000       0.00052000       0.10999000       0.11994000       0.15063200
Cu       9.50660000       5.48864000      16.10050000      -0.00092000       0.20723700      -0.15410100      -0.21016200
Cu       1.90132000       5.48864000      16.10050000      -0.02729700       0.06824200       0.02371100      -0.17049700
Cu       4.43642000       5.48864000      16.10050000      -0.00311000      -0.06602700       0.00509400       0.10366700
Cu       6.97151000       5.48864000      16.10050000       0.02880100      -0.13987500      -0.06961600       0.03323500
Cu       0.63377000       7.68410000      16.10050000       0.03310100       0.08404800       0.01625700       0.12658100
Cu       3.16887000       7.68410000      16.10050000       0.00947800       0.04248900      -0.03098500       0.15386600
Cu       5.70396000       7.68410000      16.10050000      -0.03117300      -0.23886600      -0.03660100      -0.22831600
Cu       8.23906000       7.68410000      16.10050000      -0.00253800      -0.07226400       0.09082800      -0.29354600
Cu       5.76557000       2.04361000      18.28590000       0.01756500      -0.13094000      -0.85620500      -0.44866000
Cu       8.12594000       1.83173000      18.37080000       0.03947200       0.61622500       0.15849800      -0.70623700
Cu       0.71593000       1.79336000      18.22560000       0.02618900      -0.60251900       0.34023700      -0.09093300
Cu       3.24076000       1.81585000      18.16110000       0.01751700      -0.15877800       0.32480700       0.26256900
Cu       6.97069000       4.18393000      18.34100000       0.03311300      -0.24552100      -0.44147200      -0.58240900
Cu       9.45302000       4.05280000      18.24930000       0.02549200       0.51285600      -0.71335300      -0.79200600
Cu       1.99151000       3.97694000      18.08670000       0.01138700      -0.48064400      -0.10165900       0.68990800
Cu       4.45296000       4.02477000      18.19210000       0.02362700      -0.17451500       0.39965400       0.05167600
Cu       8.31395000       6.20216000      18.05760000       0.01713500      -0.35611400       0.28882500       0.67759000
Cu       0.72496000       6.13813000      18.16090000       0.01482700      -0.59835200       0.49734400      -0.03168900
Cu       3.09378000       6.18276000      18.23580000       0.02832300       0.58841300       0.36089000      -0.33191800
Cu       5.61572000       6.27974000      18.17480000       0.01841000       0.15246500      -0.26691900      -0.13231600
Cu       9.45492000       8.37420000      18.11970000       0.02271900       0.37191800       0.32822900       0.13453300
Cu       1.98769000       8.48346000      18.18930000       0.02325700      -0.70553300      -0.57371600       0.05152000
Cu       4.39490000       8.49357000      18.21470000       0.01307100       0.47340800      -0.34087400      -0.18173200
Cu       6.86367000       8.43082000      18.07020000       0.00912200       0.50895800       0.02122900       0.53365400
Cu       5.81788000       0.42700000      20.17960000      -0.07606800      -0.46399000      -0.58840500      -0.14920100
Cu       8.26762000       0.23450000      20.18860000      -0.05636600      -0.35149000       0.06781400       0.08394600
Cu       0.54745000       0.34277000      20.21880000      -0.00292300       0.57525200       0.05852700       0.01264600
Cu       3.17108000       0.27966000      20.29620000      -0.06416800       0.02055000       0.44361500      -0.44257800
Cu       6.94505000       2.58880000      20.45470000       0.16793200       0.22718100      -0.21399800       0.14184200
Cu       9.45483000       2.53369000      20.28200000       0.05511600       0.76359900      -0.34039600      -0.00984200
Cu       1.96372000       2.52361000      20.28730000      -0.01760500      -0.06580700       0.10363800      -0.37933100
Cu       4.48107000       2.53334000      20.27110000      -0.02440400      -0.62600800       0.04944400       0.04152100
Cu       8.31358000       4.64625000      20.20950000       0.09679000      -0.27812200       1.05132600       0.92346900
Cu       0.63360000       4.70395000      20.15170000      -0.05067900       0.58052600      -0.00833100       0.13512900
Cu       3.18886000       4.85616000      20.30980000      -0.05787200      -0.48933300      -0.74483600      -0.18993400
Cu       5.59749000       4.75597000      20.30410000       0.03320900       0.36673800       0.08453700      -0.13907300
Cu       9.56934000       6.95986000      20.17260000      -0.03548600      -0.31270000      -0.46980700      -0.18558600
Cu       1.84017000       6.94449000      20.28290000      -0.03255400       0.26787300       0.05589100      -0.12094700
Cu       4.40725000       6.94826000      20.21420000      -0.04184900       0.25200700       0.31837500       0.13239500
Cu       6.99615000       6.83499000      20.09690000      -0.05601000      -0.05512300       0.39308600      -0.07558500
O        6.93636000       7.63404000       0.80629000      -1.36870200      -0.22086300      -0.39152100      -0.41960300
O        6.16713000       8.01170000       7.70703000      -1.34773400       0.33847900      -0.16921000      -0.46561900
O        0.81748000       1.95694000       0.60503000      -1.31829000      -0.51348500      -1.71156400      -1.39350600
O        0.56109000       1.01416000      26.77430000      -1.34931700      -0.79504200      -0.05516100      -1.51929800
O        8.76142000       4.16892000      25.38640000      -1.34204500      -0.22236300       0.13711700       1.21318200
O        1.44703000       3.50005000      26.26680000      -1.31035800      -1.19630300      -1.08328400       0.35379500
O        8.65646000       8.07613000       2.88023000      -1.31221000      -0.13137700       1.02618500       0.18910600
O        3.87886000       3.36313000       6.46041000      -1.28320900       1.40498900      -1.17890600       0.39176400
O        2.21804000       1.11503000       6.92747000      -1.34334800       0.40726300       0.32536000      -0.68640000
O        2.17811000       5.59881000       7.36159000      -1.31437400      -0.24013400      -1.72731400       0.21337300
O        9.19903000       1.97582000       6.90816000      -1.28341000      -1.16421900       0.03987100       0.09194500
O        5.10237000       2.46426000      24.92430000      -1.26421700      -0.85744100       1.28358200       1.25006200
O        6.53694000       1.80120000       5.78517000      -1.28935100      -2.18032000      -0.93811700      -0.55482100
O        3.85254000       7.71335000       6.16653000      -1.32800700      -0.08523400       0.66568200      -0.82100800
O        3.19130000       0.49752000      23.36160000      -1.31734000       0.21491900       0.32532500       2.43987500
O        0.80993000       6.32633000       3.98403000      -1.28089400      -1.02191800      -2.38315900      -0.96604600
O        5.68728000       1.30046000       0.71985000      -1.35070700      -0.45305300      -0.88240900      -0.51766500
O        3.63105000       8.10730000       3.45202000      -1.29380500      -0.90859900       0.24521300      -0.20861600
O        0.70552000       8.76160000      23.57560000      -1.30104500      -0.69533400       0.82782900       1.01431600
O        8.89700000       8.29580000      25.54220000      -1.32133900      -1.62087300      -1.22899500       2.05669800
O        6.01380000       0.19363000      23.47030000      -1.31267300       0.37092600       0.13137100       0.15698700
O        8.59298000       7.11726000       6.86691000      -1.31530300       0.18922900       0.12641900      -0.62076700
O        7.21337000       3.44789000       0.12073000      -1.33418700       0.61782900       0.18677300      -1.40713600
O        0.65126000       8.33728000       5.54587000      -1.33164100       0.05293700       1.43799900       0.60802700
O        2.27556000       3.72898000      23.86520000      -1.37018200      -1.06781000       1.15046900       0.43981600
O        0.60603000       5.92762000      23.94770000      -1.32509600       0.39186100       0.59099800      -0.64011400
O        4.18848000       4.06316000      27.40690000      -1.30259600       0.52134600       0.18182300       0.53009100
O        9.20693000       3.05952000      28.42760000      -1.34322800       0.18227400       1.52484600       2.35338800
O        8.36101000       5.32528000      22.52890000      -1.28763100       1.60631300      -1.05041200       0.27397500
O        7.64127000       1.72136000      25.53130000      -1.34120100      -2.82935200      -0.95435200       0.38446500
O        1.87787000       7.93751000       1.02653000      -1.25950200      -0.38180700      -1.23622400      -0.08536200
O        5.20412000       6.08696000       2.27759000      -1.30621400      -0.26718600       0.01397900       0.12242000
O        5.61175000       4.69891000      23.00580000      -1.32962100      -0.75490500      -0.56123600      -0.49747000
O        7.70146000       5.55263000       4.10225000      -1.32380500       0.38765500       1.82635000      -2.06021300
O        9.90703000       2.71407000      22.94560000      -1.27556700       1.69527700       0.19144700       0.56208100
O        3.23912000       3.56254000       2.29019000      -1.34284700      -1.19717500       0.14881700      -0.18906300
O        4.90624000       1.80943000       3.48795000      -1.34904800       1.60530500      -3.17819400       0.28040100
O        1.91767000       7.92983000      28.22210000      -1.29107300      -0.40203700       0.14453700       0.52508200
O        8.61647000       1.72014000       4.10229000      -1.30771000      -1.89205600      -0.47572700       0.59839400
O        7.32375000       2.61946000      22.60090000      -1.34270700      -2.08310800       0.02186800      -0.71521700
O        8.70901000       3.88433000       2.19563000      -1.32739100       0.57489100      -0.05830800       1.34219600
O        6.37496000       5.05650000       6.35281000      -1.25063300       0.05324600       0.34684000      -0.08009200
O        3.08768000       6.53172000      25.97090000      -1.33489400       0.49726300       1.43430000       0.45887800
O        3.36229000       2.28155000      29.47260000      -1.26778600      -1.62347400       0.08658100       1.68603700
O        1.02131000       4.77735000       1.50076000      -1.36235800      -0.51434300       0.15211500       0.09394000
O        5.93507000       6.72874000      24.74230000      -1.34585500       1.35199700      -0.95203600      -0.03218000
O        6.27682000       5.59189000      28.90740000      -1.32733800       0.32060800      -0.68203900       1.95054100
O        0.84211000       5.14231000      28.85980000      -1.25412200      -0.07441500       1.94590900      -0.26150700
O        7.63816000       6.13734000      26.79670000      -1.33035400      -0.29110900       0.40553300      -1.15688900
O       10.02190000       4.75360000       6.20671000      -1.34576900      -1.93536200      -0.93359700      -0.11049900
H        7.76451000       7.72044000       1.29319000       0.68308000       0.28185700      -0.01858400       0.44254700
H        6.59945000       8.54670000       0.79049000       0.68677600      -0.46861400       0.31355100      -0.07541000
H        6.98747000       7.58140000       7.35249000       0.68431100      -0.33497400       0.12779200       0.18086900
H        5.45405000       7.62879000       7.15741000       0.68776600      -0.40644100       0.14310300      -0.09663200
H        4.13447000       0.39705000      23.56670000       0.69036200       0.16719800       0.25125900      -0.15052800
H        0.23448000       2.23342000      30.00929000       0.65007800      -0.06582900      -0.58610900      -0.43087000
H        0.10006000       0.31384000      26.19560000       0.65768200      -0.13580300       0.96517000       0.84942100
H        1.26719000       0.51171000      27.16820000       0.67648400       0.70279700      -0.45407600       0.82915300
H        9.12123000       4.69895000      24.69290000       0.64922700       0.52416600       0.21103100      -1.15946600
H        8.35868000       4.89136000      25.92920000       0.67670600      -0.03595200      -0.27621500       0.48584900
H        4.78373000       2.90937000       6.61557000       0.59901900      -2.19092100       0.89286000      -0.17631100
H        0.60852000       3.97971000      26.09970000       0.64346600       0.00488100      -0.27862700       0.06484400
H        6.25772000       1.05649000       6.37119000       0.63606300       0.45221700       0.37571700      -0.23105000
H        9.60304000       7.96603000       2.88203000       0.62463000       0.68068500      -0.70893400       0.02400300
H        8.28858000       1.82144000       7.25293000       0.61307700       0.64954900       0.20182200      -0.55765900
H        3.20873000       2.64803000       6.61401000       0.65287600       0.50590700       0.05953800      -0.16770200
H        1.58179000       0.56839000       6.35842000       0.67951600       0.01666600       0.20197200       0.91751700
H        2.66868000       6.41415000       7.27360000       0.66530800       0.67359800       0.51061800      -0.69255300
H        2.71835000       4.84028000       6.99840000       0.66404800       0.12799300       1.10688300       0.52326100
H        8.50904000       7.64628000      26.29910000       0.63183400       1.06674700       1.45611900      -2.20603300
H        9.65823000       2.10292000       7.73998000       0.61502200       0.69064100      -0.11238900       0.57786500
H        7.87365000       3.30855000      29.44030000       0.65449500      -0.75201200       0.33456600       2.25376700
H        5.32091000       3.23090000      24.33280000       0.63293400      -0.30701000      -0.57120800       0.62011100
H        4.64142000       2.86444000      25.73870000       0.63248000       0.89375700      -0.40854900      -1.45459100
H        1.11407000       2.50569000      26.32500000       0.66636100       0.53348700       1.37902100       0.13205600
H        5.80009000       1.75195000       5.05823000       0.65346400       1.33448600       0.26902400       0.65938400
H        3.78863000       7.73915000       5.17257000       0.65062300       0.02904100      -0.40830400       0.72651500
H        3.44048000       8.59017000       6.33819000       0.65745100       0.03759200      -0.30512600       0.65764500
H        8.63685000       0.22606000       3.26848000       0.67585000      -0.57469000      -0.51507500      -0.06481300
H        3.09870000       0.42160000      22.43550000       0.57479100      -0.13813100      -0.21304300      -1.87252800
H        0.23698000       5.59902000       4.40100000       0.64398500       0.99112900       1.42434900      -0.25235000
H        6.24193000       2.06495000       0.52419000       0.69230600       0.49630400       0.73618900      -0.20540900
H        5.16039000       1.55056000       1.47846000       0.65961000       0.08090400       0.13984500       0.86352500
H        4.14153000       7.32329000       3.19586000       0.67333600       0.43975300      -0.30917800      -0.61421000
H        2.80368000       8.02362000       2.92461000       0.63943800       0.63990200       0.03075400       0.27433900
H       10.12589000       0.10004000      24.23750000       0.63221400       0.12290600      -0.71797700      -0.48986200
H        1.47247000       0.39655000      24.02310000       0.66910100       0.20839800      -0.57104600      -0.63077900
H        0.91447000       5.96548000       3.06477000       0.63485200       0.20248900       0.48661200       0.80863500
H        8.28965000       0.33093000      25.58610000       0.68052300       0.84232300      -0.68964400       0.04473600
H        6.08845000       0.12404000      22.51520000       0.61112500      -0.09381700      -0.33760000      -0.78912100
H        6.56032000       0.98380000      23.61160000       0.67842300       0.00609400       0.28626000       0.21627300
H        2.02897000       1.08798000       7.88575000       0.60353700      -0.29406900      -0.34679500      -0.47694200
H        8.82002000       7.06834000       7.79115000       0.58398400       0.09845800       0.70282000       1.67423900
H        9.08044000       6.30658000       6.66885000       0.67960700      -0.03195100      -1.18044900      -1.07827200
H        7.64568000       3.76782000       0.97389000       0.68915000       0.20489300      -0.48047200      -1.16243300
H       10.13690000       7.86030000       6.05940000       0.64788800      -0.59032000       0.15706300       0.41185300
H        1.96975000       3.72417000      24.83560000       0.67504400       0.40250400      -0.24989500      -0.48851700
H        1.39960000       5.41734000      23.68300000       0.65793400      -0.29798300       0.17970000      -0.18163300
H        2.82708000       2.96522000      23.82330000       0.66059300       0.91580100      -1.07846000      -0.36261500
H        0.86287000       7.73873000       4.84213000       0.68411400       0.44857200      -0.86371200      -0.83012100
H        0.67275000       6.82423000      23.50560000       0.66150400       0.11148600      -0.69634000       0.67802100
H        5.00488000       4.38767000      27.87970000       0.64065300      -1.24661700      -0.28185700      -0.33429100
H        3.65790000       3.56759000      28.08270000       0.66047500       0.80254900       0.19022000      -0.36302800
H        9.87555000       3.79744000      28.38730000       0.66724200      -0.90126100      -0.81053800      -0.55095300
H        9.32005000       5.38139000      22.84100000       0.65194100      -1.14402700       0.15438000      -0.36915100
H        7.77600000       2.64510000      25.70890000       0.68268500       0.88344600       1.05580700      -0.29941300
H        9.13006000       2.51466000      27.67310000       0.69925200       0.49952400      -0.73895400      -1.53406800
H        6.61436000       1.69874000      25.54610000       0.65725900       1.69285900       0.11573000      -0.29587600
H        1.28286000       7.30399000       0.56982000       0.60923400       0.67061300       0.59484900       0.49494600
H        1.46848000       8.78028000       0.85474000       0.65548000      -0.34136700       0.96698000      -0.11604300
H        5.87045000       6.62138000       1.76931000       0.65770500      -0.13686600      -0.21789900       0.33448700
H        4.72935000       4.95459000      22.63020000       0.63338300       0.94723800      -0.08599700       0.56647500
H        5.65908000       5.65209000       3.01230000       0.63909900       0.39579800       0.16618700      -0.24945800
H        5.98467000       5.42660000      23.53690000       0.67766200      -0.58835000       0.33941900       0.16815100
H        0.08605000       4.46337000       1.56745000       0.67785200      -0.03787400       0.12507100       0.30731000
H        7.50415000       5.69647000       5.01674000       0.69772500      -0.27562600      -0.37602000       1.42589200
H        7.82354000       6.49476000       3.75925000       0.63226000       0.15444800      -1.34304600       0.29249700
H        0.13232000       1.87257000      23.29220000       0.62117600      -0.55985100      -0.19489300      -0.54895500
H        3.81541000       4.26935000       2.02956000       0.64823400       1.16302600       0.60662900      -0.19326900
H        4.38222000       0.95888000       3.38272000       0.66574500       0.47480100       0.86426800       0.31093100
H        2.38074000       4.01295000       2.06268000       0.67808100       0.41745400      -0.70971900       0.48388000
H        0.56311000       3.27950000      23.17250000       0.64362300      -0.69881000      -0.19712500      -0.45683000
H        4.30491000       2.50612000       3.46447000       0.69487600      -2.07450800       2.01623600      -0.20554700
H        2.40140000       7.38795000      27.59880000       0.65635100       0.68693500      -0.34453200      -0.76138600
H        2.57597000       8.32339000      28.81080000       0.64560700      -0.06918100      -0.09317600       0.04433300
H        8.02827000       6.20585000      22.62760000       0.62800300      -0.26746800       1.05256900      -0.03876300
H        6.83767000       3.47447000      22.73480000       0.68514600       0.56135800      -0.49369000       0.09798700
H        8.80456000       2.96616000       2.54289000       0.68341800      -0.22451000       0.43795800       0.01256900
H        8.26500000       2.74377000      22.71140000       0.70587500       1.03188600       0.45914700       0.48865500
H        9.33056000       1.68343000       4.71619000       0.65296500       1.57870000       0.00090200       0.63831400
H        8.60809000       4.41126000       3.04853000       0.67717800      -0.47995100      -0.30640300      -0.82143000
H        5.83319000       4.46867000       5.82651000       0.63051600      -0.22150400      -0.12203600      -0.17889400
H        6.39256000       4.64195000       7.21662000       0.60647100       0.09909600      -0.06482000       0.46866400
H        0.85084000       2.75513000       1.06391000       0.66683000       0.44977500       2.04380600       1.81342200
H        3.43556000       5.68103000      26.23260000       0.68361000      -0.25871700      -1.01046900       0.03891400
H        4.08833000       1.87281000      29.96600000       0.63469400       0.67912600      -0.02248300      -0.35585600
H        2.31313000       6.48881000      25.41170000       0.65988300      -0.25767000      -0.62808800      -0.27762500
H        2.68722000       2.36315000       0.10056000       0.60773600       1.01132100      -0.10352800      -1.84169700
H        1.13901000       5.03867000       0.57738000       0.68305900       0.03901300      -0.06935800      -0.46450700
H        7.88472000       1.59109000       4.82586000       0.66652300       0.46678800       0.53061100      -1.53817300
H        5.02810000       6.96986000      24.90250000       0.66700500      -0.71716600       0.43004800       0.05777800
H        6.38433000       7.43594000      24.23530000       0.69753400      -0.74658800       0.48131300       0.27159500
H        6.34935000       6.39411000      29.48340000       0.65704600      -0.03969400      -0.58941000      -0.43614900
H        6.57139000       4.81843000      29.55520000       0.65972200      -0.42013800       1.13022100      -1.21061600
H        0.84634000       6.12595000      28.62100000       0.63928700      -0.08466700      -1.47424400       0.39336300
H        1.49498000       4.79602000      28.24640000       0.63758900       0.49950900      -0.37675500      -0.30149200