LAMMPS (28 Mar 2023 - Development)
KOKKOS mode is enabled (src/KOKKOS/kokkos.cpp:107)
  will use up to 1 GPU(s) per node
  using 1 OpenMP thread(s) per MPI task
package kokkos
# LAMMPS input script

# == SETUP ==
units metal #ps A K  pressure in bars
atom_style atomic

atom_modify map yes
newton on

timer timeout 23:55:00
New timer settings: style=normal  mode=nosync  timeout=23:55:00

# == VARIABLES ==
variable    temp_water equal 330  # Temperature of water system
variable    temp_Cu_mobile equal 310 # Temperatureof the Cu atom (not fixed). 310 K ensures a temperature of 330 K in the outermost Cu atoms.
variable    seed1 equal 256982574
variable    seed2 equal 1008705
variable    stride equal 1000
variable    nsteps equal 2000000 # 1000 ps
variable    tstep equal 0.0005 # 0.5fs

# == DATA ==
boundary p p p #full
read_data Cu_H2O_m125.data
Reading data file ...
  orthogonal box = (0 0 0) to (10.140377 8.7818242 30.131127)
  1 by 1 by 1 MPI processor grid
  reading atoms ...
  246 atoms
  reading velocities ...
  246 velocities
  read_data CPU = 0.070 seconds
mass		1 63.55   # Cu
mass		2 2.0016  # H
mass 		3 15.9994 # O

# == Define GROUPS ==
group H2O type 2 3
150 atoms in group H2O

# == DEFINE FIX Cu layers ==
variable z_fix_bottom equal 13.5 # A
variable z_fix_up equal 16.5# # A
region fixedlayer block  INF INF INF INF ${z_fix_bottom} ${z_fix_up} #
region fixedlayer block  INF INF INF INF 13.5 ${z_fix_up} 
region fixedlayer block  INF INF INF INF 13.5 16.5 

group Cuall type 1
96 atoms in group Cuall
group fixedCu region fixedlayer
32 atoms in group fixedCu
group mobileCu subtract Cuall fixedCu
64 atoms in group mobileCu

# == Fix layers in the middle of the slab ==
fix fissoCubott fixedCu setforce 0 0 0
velocity fixedCu set 0 0 0

# == Define surface layers ==

variable z_surface_inf_low equal 9.0 # A
variable z_surface_inf_high equal 10.6 # A
region surface_inf block  INF INF INF INF ${z_surface_inf_low} ${z_surface_inf_high}
region surface_inf block  INF INF INF INF 9 ${z_surface_inf_high}
region surface_inf block  INF INF INF INF 9 10.6
group surf_inf_Cu region surface_inf
16 atoms in group surf_inf_Cu

variable z_surface_sup_low equal 19.8 # A
variable z_surface_sup_high equal 21.0 # A
region surface_sup block  INF INF INF INF ${z_surface_sup_low} ${z_surface_sup_high}
region surface_sup block  INF INF INF INF 19.8 ${z_surface_sup_high}
region surface_sup block  INF INF INF INF 19.8 21
group surf_sup_Cu region surface_sup
16 atoms in group surf_sup_Cu

# == Define Pair Style ==

pair_style mace no_domain_decomposition
pair_coeff * * Franken_Cu_H2O_m125_RF_1024-lammps.pt Cu H O

# == Define NVT thermostat ==

velocity mobileCu create ${temp_Cu_mobile} ${seed1} mom yes rot yes
velocity mobileCu create 310 ${seed1} mom yes rot yes
velocity mobileCu create 310 256982574 mom yes rot yes
fix NVT_Cu mobileCu nvt temp ${temp_Cu_mobile} ${temp_Cu_mobile} $(100.0*dt)
fix NVT_Cu mobileCu nvt temp 310 ${temp_Cu_mobile} $(100.0*dt)
fix NVT_Cu mobileCu nvt temp 310 310 $(100.0*dt)
fix NVT_Cu mobileCu nvt temp 310 310 0.10000000000000000555

velocity  H2O create ${temp_water} ${seed2}
velocity  H2O create 330 ${seed2}
velocity  H2O create 330 1008705
fix NVT_H2O H2O nvt temp ${temp_water} ${temp_water} $(100.0*dt)
fix NVT_H2O H2O nvt temp 330 ${temp_water} $(100.0*dt)
fix NVT_H2O H2O nvt temp 330 330 $(100.0*dt)
fix NVT_H2O H2O nvt temp 330 330 0.10000000000000000555

# == Compute and Visualization ==

thermo          ${stride}
thermo          1000
thermo_style    custom step pe ke etotal temp press vol
thermo_modify	flush yes
fix 		thermo_print all print ${stride} "$(step) $(pe) $(ke) $(etotal) $(temp) $(press) $(vol)" append thermo.out screen no title "#step pe ke etotal temp press vol"
fix 		thermo_print all print 1000 "$(step) $(pe) $(ke) $(etotal) $(temp) $(press) $(vol)" append thermo.out screen no title "#step pe ke etotal temp press vol"

compute Tmobile mobileCu temp
compute Tsurface_inf surf_inf_Cu temp
compute Tsurface_sup surf_sup_Cu temp
compute Twater H2O temp
compute Tall all temp
compute Press all pressure Tall

fix myat1 mobileCu ave/time 1 1 100 c_Tmobile file temperature_mobile.dat
fix myat2 surf_inf_Cu ave/time 1 1 100 c_Tsurface_inf file temperature_surf_inf.dat
fix myat3 surf_sup_Cu ave/time 1 1 100 c_Tsurface_sup file temperature_surf_sup.dat
fix myat4 H2O ave/time 1 1 100 c_Twater file temperature_water.dat
fix myat5 all ave/time 1 1 100 c_Press[3]  file pressure_all.dat

dump		viewNVT all custom ${stride} Cu_H2O_NVT_m125.dump id type element x y z fx fy fz
dump		viewNVT all custom 1000 Cu_H2O_NVT_m125.dump id type element x y z fx fy fz
dump_modify	viewNVT sort id append yes element Cu H O

# == RUN  NVT ==

timestep ${tstep}
timestep 0.0005
run		${nsteps}
run		2000000
Generated 0 of 3 mixed pair_coeff terms from geometric mixing rule
Neighbor list info ...
  update: every = 1 steps, delay = 0 steps, check = yes
  max neighbors/atom: 2000, page size: 100000
  master list distance cutoff = 14
  ghost atom cutoff = 14
  binsize = 14, bins = 1 1 3
  1 neighbor lists, perpetual/occasional/extra = 1 0 0
  (1) pair mace/kk, perpetual
      attributes: full, newton on, kokkos_device
      pair build: full/bin/kk/device
      stencil: full/bin/3d
      bin: kk/device
Per MPI rank memory allocation (min/avg/max) = 4.832 | 4.832 | 4.832 Mbytes
   Step         PotEng         KinEng         TotEng          Temp          Press          Volume    
         0  -1811.2077      8.880172      -1802.3275      280.40816      3534.9742      2683.2073    
      1000  -1811.7553      8.9431137     -1802.8122      282.39567      3560.0297      2683.2073    
      2000  -1811.7825      8.5422057     -1803.2403      269.73624      3400.4383      2683.2073    
      3000  -1810.5436      9.0042349     -1801.5394      284.32568      3584.3605      2683.2073    
      4000  -1812.1046      8.8217181     -1803.2829      278.56237      3511.7052      2683.2073    
      5000  -1812.1467      8.531722      -1803.6149      269.4052       3396.265       2683.2073    
      6000  -1811.4348      9.4395254     -1801.9953      298.0708       3757.6388      2683.2073    
      7000  -1811.4546      8.9178143     -1802.5368      281.59679      3549.9586      2683.2073    
      8000  -1812.0852      9.6866418     -1802.3985      305.87397      3856.0097      2683.2073    
      9000  -1812.3582      8.4214892     -1803.9367      265.92439      3352.3841      2683.2073    
     10000  -1811.1713      8.3630193     -1802.8082      264.07809      3329.1086      2683.2073    
     11000  -1812.1654      9.1978911     -1802.9675      290.44074      3661.4502      2683.2073    
     12000  -1810.9395      8.4322161     -1802.5073      266.26311      3356.6542      2683.2073    
     13000  -1809.8226      7.8080186     -1802.0146      246.5529       3108.1768      2683.2073    
     14000  -1810.195       9.155286      -1801.0397      289.09541      3644.4902      2683.2073    
     15000  -1810.4328      8.4989054     -1801.9339      268.36895      3383.2015      2683.2073    
     16000  -1811.6236      8.3994626     -1803.2241      265.22886      3343.6158      2683.2073    
     17000  -1810.5753      9.1664827     -1801.4088      289.44896      3648.9473      2683.2073    
     18000  -1810.8686      8.1517223     -1802.7169      257.40599      3244.9966      2683.2073    
     19000  -1811.428       8.0874538     -1803.3406      255.37659      3219.4129      2683.2073    
     20000  -1811.3281      8.684418      -1802.6437      274.22686      3457.0494      2683.2073    
     21000  -1811.2213      8.6413704     -1802.58        272.86755      3439.9132      2683.2073    
     22000  -1811.5701      8.7323902     -1802.8377      275.74167      3476.1459      2683.2073    
     23000  -1810.3369      9.0047706     -1801.3322      284.3426       3584.5738      2683.2073    
     24000  -1810.6996      9.3700098     -1801.3296      295.87572      3729.9664      2683.2073    
     25000  -1810.4601      8.6112135     -1801.8489      271.91529      3427.9085      2683.2073    
     26000  -1810.1284      9.6899396     -1800.4385      305.9781       3857.3224      2683.2073    
     27000  -1812.2002      8.8722603     -1803.3279      280.15834      3531.8248      2683.2073    
     28000  -1810.619       8.3789493     -1802.2401      264.58111      3335.45        2683.2073    
     29000  -1811.1188      8.2870338     -1802.8318      261.67871      3298.8607      2683.2073    
     30000  -1810.3879      9.2675418     -1801.1204      292.6401       3689.1764      2683.2073    
     31000  -1810.6918      9.3791207     -1801.3127      296.16341      3733.5932      2683.2073    
     32000  -1809.6174      8.2254779     -1801.3919      259.73496      3274.3568      2683.2073    
     33000  -1811.2925      8.7542429     -1802.5382      276.43172      3484.845       2683.2073    
     34000  -1810.9843      9.0463328     -1801.9379      285.65501      3601.1187      2683.2073    
     35000  -1811.9133      9.1699633     -1802.7433      289.55887      3650.3329      2683.2073    
     36000  -1811.1288      7.9169952     -1803.2118      249.99404      3151.5576      2683.2073    
     37000  -1810.8821      8.9390368     -1801.9431      282.26693      3558.4068      2683.2073    
     38000  -1811.3274      8.8469817     -1802.4804      279.36012      3521.762       2683.2073    
     39000  -1811.2748      8.5590556     -1802.7157      270.26831      3407.1458      2683.2073    
     40000  -1811.4829      8.8601082     -1802.6228      279.77461      3526.9873      2683.2073    
     41000  -1810.713       9.1250045     -1801.588       288.13921      3632.4359      2683.2073    
     42000  -1811.7009      8.9014274     -1802.7995      281.07934      3543.4355      2683.2073    
     43000  -1812.4084      8.9008718     -1803.5075      281.0618       3543.2143      2683.2073    
     44000  -1811.4194      8.8896998     -1802.5297      280.70902      3538.767       2683.2073    
     45000  -1811.5005      9.4714897     -1802.029       299.08013      3770.363       2683.2073    
     46000  -1812.1401      8.9223059     -1803.2178      281.73862      3551.7466      2683.2073    
     47000  -1810.8401      8.6268655     -1802.2133      272.40953      3434.1392      2683.2073    
     48000  -1811.4429      8.991512      -1802.4514      283.92394      3579.2959      2683.2073    
     49000  -1811.6445      9.3037031     -1802.3408      293.78196      3703.5713      2683.2073    
     50000  -1811.6797      9.2615519     -1802.4181      292.45095      3686.792       2683.2073    
     51000  -1811.8745      9.7065514     -1802.168       306.50265      3863.9352      2683.2073    
     52000  -1811.8879      9.0434326     -1802.8445      285.56342      3599.9641      2683.2073    
     53000  -1811.8439      8.7405806     -1803.1034      276.0003       3479.4064      2683.2073    
     54000  -1811.448       8.7224737     -1802.7255      275.42854      3472.1984      2683.2073    
     55000  -1811.8024      8.6951979     -1803.1072      274.56726      3461.3407      2683.2073    
     56000  -1809.972       8.9219329     -1801.0501      281.72684      3551.5981      2683.2073    
     57000  -1810.3334      9.4484764     -1800.8849      298.35345      3761.2019      2683.2073    
     58000  -1810.993       9.5768572     -1801.4162      302.40731      3812.3071      2683.2073    
     59000  -1811.9567      8.8769281     -1803.0798      280.30573      3533.6829      2683.2073    
     60000  -1810.9142      8.6713162     -1802.2429      273.81315      3451.8339      2683.2073    
     61000  -1810.5164      9.1838525     -1801.3325      289.99745      3655.8618      2683.2073    
     62000  -1809.8719      9.1984099     -1800.6735      290.45713      3661.6567      2683.2073    
     63000  -1811.3993      9.1338326     -1802.2654      288.41798      3635.9501      2683.2073    
     64000  -1810.1087      9.1957019     -1800.913       290.37162      3660.5787      2683.2073    
     65000  -1809.1842      8.6572636     -1800.5269      273.36941      3446.2399      2683.2073    
     66000  -1811.4513      9.4289535     -1802.0224      297.73697      3753.4304      2683.2073    
     67000  -1810.22        9.3593749     -1800.8606      295.5399       3725.7329      2683.2073    
     68000  -1809.4601      8.6306622     -1800.8294      272.52942      3435.6506      2683.2073    
     69000  -1810.658       8.8779803     -1801.7801      280.33896      3534.1018      2683.2073    
     70000  -1810.6782      8.2855115     -1802.3927      261.63064      3298.2547      2683.2073    
     71000  -1809.9136      8.5049507     -1801.4086      268.55985      3385.608       2683.2073    
     72000  -1810.3621      8.7437824     -1801.6183      276.10141      3480.6809      2683.2073    
     73000  -1811.6034      9.0130308     -1802.5903      284.60343      3587.8619      2683.2073    
     74000  -1812.1627      8.3364064     -1803.8263      263.23774      3318.5147      2683.2073    
     75000  -1811.6015      8.545483      -1803.056       269.83973      3401.7429      2683.2073    
     76000  -1812.0147      9.6160845     -1802.3986      303.64599      3827.9225      2683.2073    
     77000  -1812.0722      9.7107808     -1802.3614      306.6362       3865.6188      2683.2073    
     78000  -1810.6469      9.0793761     -1801.5675      286.69841      3614.2724      2683.2073    
     79000  -1811.4468      8.7654475     -1802.6814      276.78552      3489.3052      2683.2073    
     80000  -1811.6467      7.8225761     -1803.8241      247.01258      3113.9717      2683.2073    
     81000  -1811.8492      8.2962941     -1803.5529      261.97112      3302.547       2683.2073    
     82000  -1811.9459      8.6683008     -1803.2776      273.71793      3450.6336      2683.2073    
     83000  -1810.7404      8.7880608     -1801.9523      277.49958      3498.307       2683.2073    
     84000  -1811.2868      8.9210566     -1802.3657      281.69917      3551.2493      2683.2073    
     85000  -1811.9874      9.5025987     -1802.4848      300.06246      3782.7467      2683.2073    
     86000  -1811.9853      9.0282863     -1802.957       285.08515      3593.9348      2683.2073    
     87000  -1810.9276      8.6243808     -1802.3032      272.33107      3433.1501      2683.2073    
     88000  -1811.0643      8.7147844     -1802.3495      275.18574      3469.1375      2683.2073    
     89000  -1811.2065      8.3917358     -1802.8148      264.98487      3340.54        2683.2073    
     90000  -1810.5196      8.3047763     -1802.2148      262.23896      3305.9236      2683.2073    
     91000  -1809.9194      9.1250748     -1800.7943      288.14143      3632.4639      2683.2073    
     92000  -1810.6022      8.1661671     -1802.436       257.86212      3250.7467      2683.2073    
     93000  -1811.1092      8.0138149     -1803.0954      253.05131      3190.0991      2683.2073    
     94000  -1810.4788      8.2627635     -1802.216       260.91233      3289.1993      2683.2073    
     95000  -1812.075       8.3578538     -1803.7172      263.91498      3327.0524      2683.2073    
     96000  -1811.3181      8.5912972     -1802.7268      271.2864       3419.9804      2683.2073    
     97000  -1811.0642      8.6812241     -1802.3829      274.12601      3455.778       2683.2073    
     98000  -1810.8036      9.3218364     -1801.4818      294.35455      3710.7897      2683.2073    
     99000  -1811.1555      9.0633928     -1802.0921      286.19371      3607.9098      2683.2073    
    100000  -1810.5359      9.5207957     -1801.0151      300.63706      3789.9904      2683.2073    
    101000  -1810.9292      9.1723277     -1801.7568      289.63353      3651.2741      2683.2073    
    102000  -1810.5999      9.9338566     -1800.666       313.68024      3954.4196      2683.2073    
    103000  -1811.4472      7.8072145     -1803.64        246.52751      3107.8567      2683.2073    
    104000  -1810.9423      9.3297722     -1801.6125      294.60514      3713.9488      2683.2073    
    105000  -1810.8108      9.5156382     -1801.2951      300.47421      3787.9374      2683.2073    
    106000  -1811.8084      8.1916785     -1803.6168      258.66769      3260.9022      2683.2073    
    107000  -1811.5109      9.0848464     -1802.426       286.87114      3616.45        2683.2073    
    108000  -1811.8639      9.0643832     -1802.7995      286.22498      3608.3041      2683.2073    
    109000  -1811.6633      8.3356878     -1803.3276      263.21505      3318.2286      2683.2073    
    110000  -1811.9064      8.8473771     -1803.0591      279.3726       3521.9194      2683.2073    
    111000  -1811.4687      8.6704942     -1802.7983      273.78719      3451.5067      2683.2073    
    112000  -1812.3148      8.6687072     -1803.6461      273.73076      3450.7953      2683.2073    
    113000  -1811.5844      8.6320228     -1802.9524      272.57239      3436.1922      2683.2073    
    114000  -1812.2866      8.633743      -1803.6529      272.6267       3436.877       2683.2073    
    115000  -1812.0018      8.8485964     -1803.1532      279.4111       3522.4047      2683.2073    
    116000  -1810.2992      8.1914263     -1802.1078      258.65972      3260.8018      2683.2073    
    117000  -1810.8898      9.2399567     -1801.6498      291.76904      3678.1955      2683.2073    
    118000  -1810.5375      9.2982477     -1801.2393      293.60969      3701.3997      2683.2073    
    119000  -1810.7545      9.2890276     -1801.4655      293.31855      3697.7294      2683.2073    
    120000  -1810.6866      9.0641555     -1801.6224      286.21779      3608.2134      2683.2073    
    121000  -1810.2668      9.0127302     -1801.2541      284.59394      3587.7423      2683.2073    
    122000  -1811.0193      8.3143064     -1802.705       262.53989      3309.7173      2683.2073    
    123000  -1811.0159      9.3289151     -1801.6869      294.57807      3713.6076      2683.2073    
    124000  -1810.2179      8.8459121     -1801.3719      279.32634      3521.3362      2683.2073    
    125000  -1811.3434      9.440592      -1801.9028      298.10448      3758.0634      2683.2073    
    126000  -1809.9848      7.7398913     -1802.2449      244.40165      3081.057       2683.2073    
    127000  -1811.0035      9.283948      -1801.7196      293.15815      3695.7073      2683.2073    
    128000  -1811.3577      9.3531386     -1802.0046      295.34298      3723.2504      2683.2073    
    129000  -1810.918       9.871463      -1801.0465      311.71005      3929.5823      2683.2073    
    130000  -1810.8742      9.3716133     -1801.5026      295.92635      3730.6047      2683.2073    
    131000  -1812.1617      8.7544733     -1803.4072      276.43899      3484.9367      2683.2073    
    132000  -1811.5448      8.5995692     -1802.9452      271.5476       3423.2732      2683.2073    
    133000  -1811.3361      8.3823606     -1802.9538      264.68883      3336.8079      2683.2073    
    134000  -1810.0535      9.0858982     -1800.9676      286.90436      3616.8687      2683.2073    
    135000  -1811.4331      8.9413405     -1802.4917      282.33968      3559.3239      2683.2073    
    136000  -1810.6617      7.9750138     -1802.6866      251.82609      3174.6534      2683.2073    
    137000  -1811.6583      8.7715816     -1802.8868      276.97922      3491.7471      2683.2073    
    138000  -1811.3288      8.8339547     -1802.4949      278.94877      3516.5762      2683.2073    
    139000  -1811.2844      8.8586807     -1802.4257      279.72954      3526.4191      2683.2073    
    140000  -1810.8029      8.2482205     -1802.5547      260.45311      3283.4101      2683.2073    
    141000  -1811.5456      9.2165604     -1802.329       291.03026      3668.882       2683.2073    
    142000  -1811.4973      7.8516841     -1803.6457      247.93172      3125.5589      2683.2073    
    143000  -1811.7221      8.5902671     -1803.1318      271.25387      3419.5703      2683.2073    
    144000  -1811.4296      8.7362103     -1802.6934      275.8623       3477.6666      2683.2073    
    145000  -1810.1745      8.704851      -1801.4697      274.87207      3465.1833      2683.2073    
    146000  -1810.7338      8.7937934     -1801.94        277.6806       3500.589       2683.2073    
    147000  -1810.6028      8.8636751     -1801.7391      279.88724      3528.4072      2683.2073    
    148000  -1812.0443      9.7912556     -1802.2531      309.17735      3897.6538      2683.2073    
    149000  -1812.4189      9.6225797     -1802.7964      303.85109      3830.5081      2683.2073    
    150000  -1811.5741      9.1409688     -1802.4331      288.64332      3638.7909      2683.2073    
    151000  -1811.2311      9.276169      -1801.955       292.91252      3692.6107      2683.2073    
    152000  -1811.3209      8.6113121     -1802.7096      271.91841      3427.9478      2683.2073    
    153000  -1811.3722      8.9084234     -1802.4638      281.30026      3546.2204      2683.2073    
    154000  -1810.4839      8.5650924     -1801.9188      270.45893      3409.5489      2683.2073    
    155000  -1810.9428      8.8853437     -1802.0575      280.57147      3537.0329      2683.2073    
    156000  -1810.8058      8.3799302     -1802.4259      264.61209      3335.8404      2683.2073    
    157000  -1811.1985      9.6762496     -1801.5222      305.54581      3851.8728      2683.2073    
    158000  -1809.3634      9.020789      -1800.3426      284.84841      3590.9503      2683.2073    
    159000  -1810.1611      8.8242958     -1801.3368      278.64377      3512.7313      2683.2073    
    160000  -1810.3363      9.1938108     -1801.1425      290.3119       3659.8259      2683.2073    
    161000  -1809.4358      8.6783764     -1800.7574      274.03609      3454.6444      2683.2073    
    162000  -1811.7524      8.3135152     -1803.4388      262.51491      3309.4023      2683.2073    
    163000  -1809.5568      8.8823214     -1800.6745      280.47604      3535.8298      2683.2073    
    164000  -1809.818       8.3289044     -1801.4891      263.00085      3315.5284      2683.2073    
    165000  -1811.2775      8.6123145     -1802.6652      271.95006      3428.3468      2683.2073    
    166000  -1811.4685      9.2168144     -1802.2517      291.03828      3668.9831      2683.2073    
    167000  -1810.7109      9.7236801     -1800.9872      307.04352      3870.7537      2683.2073    
    168000  -1810.6908      9.7033758     -1800.9874      306.40238      3862.671       2683.2073    
    169000  -1811.2233      8.4420361     -1802.7813      266.5732       3360.5633      2683.2073    
    170000  -1811.6532      8.4145835     -1803.2386      265.70633      3349.6351      2683.2073    
    171000  -1811.5601      8.364314      -1803.1958      264.11898      3329.624       2683.2073    
    172000  -1811.1552      8.8852784     -1802.2699      280.56941      3537.0069      2683.2073    
    173000  -1810.8413      9.1018201     -1801.7395      287.40712      3623.2067      2683.2073    
    174000  -1810.9798      9.8849837     -1801.0948      312.13699      3934.9646      2683.2073    
    175000  -1810.7668      8.5145373     -1802.2523      268.86256      3389.4242      2683.2073    
    176000  -1811.8654      8.3615561     -1803.5039      264.03189      3328.5262      2683.2073    
    177000  -1811.6689      8.0170697     -1803.6519      253.15408      3191.3948      2683.2073    
    178000  -1811.115       8.6301728     -1802.4849      272.51397      3435.4558      2683.2073    
    179000  -1810.09        8.8115233     -1801.2785      278.24045      3507.6469      2683.2073    
    180000  -1810.9717      8.708595      -1802.2631      274.9903       3466.6737      2683.2073    
    181000  -1811.1967      8.6934344     -1802.5033      274.51157      3460.6386      2683.2073    
    182000  -1810.2105      8.9023832     -1801.3081      281.10952      3543.8159      2683.2073    
    183000  -1811.3039      9.6283323     -1801.6755      304.03274      3832.7981      2683.2073    
    184000  -1811.5192      9.002772      -1802.5164      284.27949      3583.7782      2683.2073    
    185000  -1810.0644      9.2165779     -1800.8478      291.03081      3668.889       2683.2073    
    186000  -1812.4479      9.1813044     -1803.2666      289.91699      3654.8474      2683.2073    
    187000  -1812.1198      9.4167202     -1802.7031      297.35068      3748.5606      2683.2073    
    188000  -1811.5198      8.5776602     -1802.9421      270.85578      3414.5518      2683.2073    
    189000  -1810.7823      9.2800816     -1801.5022      293.03606      3694.1682      2683.2073    
    190000  -1810.5324      8.6893516     -1801.8431      274.38265      3459.0134      2683.2073    
    191000  -1811.2299      8.7021689     -1802.5277      274.78738      3464.1156      2683.2073    
    192000  -1811.9917      8.5757374     -1803.4159      270.79507      3413.7864      2683.2073    
    193000  -1812.0978      8.724628      -1803.3732      275.49657      3473.056       2683.2073    
    194000  -1810.7788      9.1285718     -1801.6502      288.25186      3633.8559      2683.2073    
    195000  -1811.5927      8.9061353     -1802.6866      281.22801      3545.3096      2683.2073    
    196000  -1810.8741      8.5310524     -1802.3431      269.38406      3395.9984      2683.2073    
    197000  -1811.4375      9.1933391     -1802.2441      290.29701      3659.6382      2683.2073    
    198000  -1811.4172      9.028936      -1802.3882      285.10567      3594.1934      2683.2073    
    199000  -1811.5049      9.4912452     -1802.0137      299.70395      3778.2271      2683.2073    
    200000  -1810.7377      8.3930947     -1802.3446      265.02778      3341.0809      2683.2073    
    201000  -1810.2481      8.5662398     -1801.6819      270.49516      3410.0056      2683.2073    
    202000  -1811.1475      8.9367833     -1802.2107      282.19577      3557.5097      2683.2073    
    203000  -1810.6779      9.1370196     -1801.5409      288.51861      3637.2188      2683.2073    
    204000  -1810.9147      8.5365851     -1802.3781      269.55876      3398.2008      2683.2073    
    205000  -1810.4671      7.9858812     -1802.4812      252.16925      3178.9794      2683.2073    
    206000  -1811.562       9.217781      -1802.3443      291.0688       3669.3679      2683.2073    
    207000  -1810.7481      9.1471561     -1801.6009      288.83869      3641.2539      2683.2073    
    208000  -1810.421       8.2423126     -1802.1786      260.26655      3281.0583      2683.2073    
    209000  -1811.0518      8.2061743     -1802.8457      259.12542      3266.6726      2683.2073    
    210000  -1810.9965      9.6056734     -1801.3908      303.31724      3823.7781      2683.2073    
    211000  -1808.7587      8.5565857     -1800.2021      270.19032      3406.1626      2683.2073    
    212000  -1811.1787      8.9072127     -1802.2715      281.26203      3545.7384      2683.2073    
    213000  -1811.0173      8.7244509     -1802.2928      275.49098      3472.9855      2683.2073    
    214000  -1810.5618      9.4151172     -1801.1467      297.30007      3747.9225      2683.2073    
    215000  -1810.8119      9.2248192     -1801.587       291.29105      3672.1696      2683.2073    
    216000  -1810.2588      10.213339     -1800.0455      322.50543      4065.6746      2683.2073    
    217000  -1811.3001      8.9631461     -1802.3369      283.02823      3568.0041      2683.2073    
    218000  -1810.6661      8.2448177     -1802.4213      260.34566      3282.0556      2683.2073    
    219000  -1810.8174      9.2235179     -1801.5939      291.24996      3671.6516      2683.2073    
    220000  -1810.1206      9.2937334     -1800.8268      293.46715      3699.6026      2683.2073    
    221000  -1810.1871      9.8339954     -1800.3532      310.52694      3914.6674      2683.2073    
    222000  -1811.391       9.75404       -1801.637       308.00219      3882.8392      2683.2073    
    223000  -1810.6525      9.4238893     -1801.2286      297.57706      3751.4145      2683.2073    
    224000  -1810.7122      9.5674088     -1801.1448      302.10896      3808.546       2683.2073    
    225000  -1810.8341      9.4663981     -1801.3677      298.91936      3768.3361      2683.2073    
    226000  -1810.999       9.2131097     -1801.7859      290.9213       3667.5084      2683.2073    
    227000  -1810.9742      8.9579664     -1802.0162      282.86467      3565.9422      2683.2073    
    228000  -1810.286       8.1414783     -1802.1446      257.08252      3240.9187      2683.2073    
    229000  -1811.1734      8.5272732     -1802.6461      269.26472      3394.494       2683.2073    
    230000  -1811.3972      8.768991      -1802.6282      276.89741      3490.7158      2683.2073    
    231000  -1811.229       9.0089834     -1802.22        284.47563      3586.2508      2683.2073    
    232000  -1811.3629      9.3424101     -1802.0205      295.0042       3718.9796      2683.2073    
    233000  -1810.561       8.7177826     -1801.8432      275.28041      3470.3311      2683.2073    
    234000  -1810.9706      8.5462207     -1802.4243      269.86302      3402.0365      2683.2073    
    235000  -1811.3398      7.9546536     -1803.3851      251.18318      3166.5485      2683.2073    
    236000  -1810.9293      8.5946806     -1802.3346      271.39324      3421.3272      2683.2073    
    237000  -1811.4023      8.2910087     -1803.1113      261.80422      3300.4431      2683.2073    
    238000  -1811.5201      8.7613254     -1802.7588      276.65536      3487.6643      2683.2073    
    239000  -1812.176       8.6947104     -1803.4813      274.55187      3461.1466      2683.2073    
    240000  -1811.6709      8.6815243     -1802.9893      274.13549      3455.8975      2683.2073    
    241000  -1810.8766      8.8974815     -1801.9791      280.95474      3541.8647      2683.2073    
    242000  -1812.331       10.223514     -1802.1075      322.82673      4069.7252      2683.2073    
    243000  -1810.4106      8.608972      -1801.8016      271.84451      3427.0162      2683.2073    
    244000  -1810.4955      8.4679585     -1802.0275      267.39175      3370.8823      2683.2073    
    245000  -1810.9483      8.7568409     -1802.1915      276.51375      3485.8792      2683.2073    
    246000  -1811.6539      9.9194549     -1801.7345      313.22548      3948.6867      2683.2073    
    247000  -1811.4714      9.2813247     -1802.1901      293.07532      3694.6631      2683.2073    
    248000  -1811.9143      8.6724605     -1803.2418      273.84928      3452.2894      2683.2073    
    249000  -1812.244       9.2385885     -1803.0054      291.72584      3677.6508      2683.2073    
    250000  -1811.6605      9.3603693     -1802.3001      295.5713       3726.1287      2683.2073    
    251000  -1811.9593      9.1010108     -1802.8583      287.38157      3622.8846      2683.2073    
    252000  -1811.4498      8.0739271     -1803.3759      254.94946      3214.0283      2683.2073    
    253000  -1812.0001      8.2834597     -1803.7166      261.56585      3297.438       2683.2073    
    254000  -1811.7556      9.0536185     -1802.7019      285.88507      3604.0189      2683.2073    
    255000  -1810.8483      8.8068516     -1802.0415      278.09293      3505.7872      2683.2073    
    256000  -1811.9819      8.8195435     -1803.1623      278.49371      3510.8395      2683.2073    
    257000  -1811.0727      8.357041      -1802.7156      263.88932      3326.7288      2683.2073    
    258000  -1811.4557      8.7730693     -1802.6826      277.02619      3492.3393      2683.2073    
    259000  -1810.3272      8.6331009     -1801.6941      272.60643      3436.6214      2683.2073    
    260000  -1809.8725      9.1115101     -1800.761       287.7131       3627.0641      2683.2073    
    261000  -1810.8409      8.8490478     -1801.9918      279.42536      3522.5844      2683.2073    
    262000  -1811.1881      8.7617521     -1802.4263      276.66883      3487.8342      2683.2073    
    263000  -1810.9532      8.4312313     -1802.522       266.23202      3356.2622      2683.2073    
    264000  -1810.5073      8.7161522     -1801.7912      275.22893      3469.682       2683.2073    
    265000  -1810.904       8.567729      -1802.3362      270.54219      3410.5985      2683.2073    
    266000  -1811.3955      8.8375222     -1802.558       279.06142      3517.9964      2683.2073    
    267000  -1810.765       8.6002347     -1802.1648      271.56862      3423.5382      2683.2073    
    268000  -1812.0257      8.5934045     -1803.4323      271.35294      3420.8192      2683.2073    
    269000  -1811.2729      9.0956251     -1802.1773      287.2115       3620.7407      2683.2073    
    270000  -1811.7982      8.8418578     -1802.9564      279.19832      3519.7223      2683.2073    
    271000  -1810.826       9.068108      -1801.7579      286.3426       3609.7868      2683.2073    
    272000  -1810.4026      8.4930053     -1801.9096      268.18265      3380.8528      2683.2073    
    273000  -1811.583       7.8545039     -1803.7285      248.02076      3126.6814      2683.2073    
    274000  -1811.7975      8.5836041     -1803.2139      271.04347      3416.9179      2683.2073    
    275000  -1811.6875      8.1479586     -1803.5396      257.28715      3243.4984      2683.2073    
    276000  -1810.3799      8.8033878     -1801.5765      277.98356      3504.4083      2683.2073    
    277000  -1811.071       9.5599355     -1801.5111      301.87298      3805.571       2683.2073    
    278000  -1810.9436      9.3648464     -1801.5788      295.71267      3727.911       2683.2073    
    279000  -1810.8728      9.0288623     -1801.8439      285.10334      3594.1641      2683.2073    
    280000  -1811.4083      7.972249      -1803.436       251.73878      3173.5528      2683.2073    
    281000  -1811.3423      9.2477835     -1802.0945      292.01619      3681.3111      2683.2073    
    282000  -1811.5626      9.0174223     -1802.5452      284.7421       3589.6101      2683.2073    
    283000  -1810.5194      9.5294907     -1800.9899      300.91163      3793.4517      2683.2073    
    284000  -1811.4872      8.5976102     -1802.8896      271.48574      3422.4934      2683.2073    
    285000  -1810.2337      8.3085659     -1801.9251      262.35863      3307.4321      2683.2073    
    286000  -1811.0752      9.2657599     -1801.8094      292.58383      3688.4671      2683.2073    
    287000  -1810.994       8.7172117     -1802.2768      275.26238      3470.1038      2683.2073    
    288000  -1811.1491      8.8387087     -1802.3104      279.09888      3518.4687      2683.2073    
    289000  -1811.7534      9.3699869     -1802.3834      295.87499      3729.9573      2683.2073    
    290000  -1812.2727      8.5808449     -1803.6919      270.95635      3415.8196      2683.2073    
    291000  -1811.8755      8.6426025     -1803.2329      272.90646      3440.4037      2683.2073    
    292000  -1810.9171      9.2708573     -1801.6462      292.74479      3690.4962      2683.2073    
    293000  -1812.605       8.9354423     -1803.6696      282.15343      3556.9759      2683.2073    
    294000  -1811.711       8.1730024     -1803.538       258.07795      3253.4677      2683.2073    
    295000  -1811.5306      8.7348643     -1802.7958      275.8198       3477.1308      2683.2073    
    296000  -1810.6811      9.1511128     -1801.53        288.96363      3642.8289      2683.2073    
    297000  -1810.0555      9.7879909     -1800.2675      309.07426      3896.3542      2683.2073    
    298000  -1810.4267      9.1751401     -1801.2516      289.72234      3652.3936      2683.2073    
    299000  -1810.6084      8.3237613     -1802.2846      262.83845      3313.481       2683.2073    
    300000  -1810.9067      8.0498492     -1802.8568      254.18916      3204.4435      2683.2073    
    301000  -1811.5616      8.5275479     -1803.0341      269.27339      3394.6034      2683.2073    
    302000  -1809.6861      8.6646966     -1801.0214      273.60412      3449.1988      2683.2073    
    303000  -1810.6536      9.2109999     -1801.4426      290.85468      3666.6685      2683.2073    
    304000  -1811.4438      8.9355778     -1802.5083      282.15771      3557.0299      2683.2073    
    305000  -1810.9438      8.4661752     -1802.4776      267.33544      3370.1724      2683.2073    
    306000  -1811.8686      9.4952984     -1802.3733      299.83194      3779.8406      2683.2073    
    307000  -1810.3841      9.721971      -1800.6621      306.98955      3870.0733      2683.2073    
    308000  -1810.9979      8.1158591     -1802.8821      256.27354      3230.7204      2683.2073    
    309000  -1811.8381      9.317207      -1802.5209      294.20837      3708.9469      2683.2073    
    310000  -1811.438       9.2502748     -1802.1877      292.09486      3682.3029      2683.2073    
    311000  -1811.1522      7.6193919     -1803.5328      240.59666      3033.0892      2683.2073    
    312000  -1810.9772      8.9030727     -1802.0741      281.1313       3544.0904      2683.2073    
    313000  -1810.8552      9.6298987     -1801.2253      304.0822       3833.4216      2683.2073    
    314000  -1811.1976      10.010764     -1801.1868      316.10874      3985.0346      2683.2073    
    315000  -1812.6563      10.098973     -1802.5573      318.89409      4020.1482      2683.2073    
    316000  -1810.7237      8.9639874     -1801.7597      283.05479      3568.339       2683.2073    
    317000  -1810.1658      8.1206353     -1802.0451      256.42436      3232.6216      2683.2073    
    318000  -1811.7608      8.5961984     -1803.1646      271.44116      3421.9314      2683.2073    
    319000  -1810.7506      8.7709959     -1801.9796      276.96072      3491.5139      2683.2073    
    320000  -1810.3147      8.5053291     -1801.8094      268.57179      3385.7586      2683.2073    
    321000  -1810.9881      8.3854074     -1802.6027      264.78504      3338.0208      2683.2073    
    322000  -1811.2653      8.3089687     -1802.9563      262.37134      3307.5925      2683.2073    
    323000  -1810.5286      9.290032      -1801.2386      293.35027      3698.1292      2683.2073    
    324000  -1810.3371      9.4112152     -1800.9258      297.17685      3746.3692      2683.2073    
    325000  -1811.4497      8.2306545     -1803.219       259.89843      3276.4175      2683.2073    
    326000  -1811.3716      9.1396424     -1802.2319      288.60143      3638.2629      2683.2073    
    327000  -1811.8279      8.8337854     -1802.9941      278.94342      3516.5089      2683.2073    
    328000  -1810.4956      9.5213842     -1800.9742      300.65565      3790.2247      2683.2073    
    329000  -1812.3754      9.2871321     -1803.0883      293.2587       3696.9748      2683.2073    
    330000  -1811.4518      8.5564873     -1802.8953      270.18721      3406.1234      2683.2073    
    331000  -1811.7559      8.9384027     -1802.8175      282.24691      3558.1544      2683.2073    
    332000  -1811.1082      8.7931535     -1802.3151      277.66039      3500.3343      2683.2073    
    333000  -1811.9082      9.2382798     -1802.6699      291.71609      3677.528       2683.2073    
    334000  -1811.3822      9.2105823     -1802.1716      290.84149      3666.5023      2683.2073    
    335000  -1812.0362      9.0451517     -1802.9911      285.61771      3600.6485      2683.2073    
    336000  -1811.3748      9.0653723     -1802.3095      286.25621      3608.6978      2683.2073    
    337000  -1811.479       9.1837263     -1802.2953      289.99346      3655.8116      2683.2073    
    338000  -1812.3715      8.4021027     -1803.9694      265.31223      3344.6668      2683.2073    
    339000  -1811.7464      8.0798007     -1803.6666      255.13493      3216.3664      2683.2073    
    340000  -1810.7441      9.1717344     -1801.5724      289.6148       3651.0379      2683.2073    
    341000  -1810.9026      8.3548476     -1802.5477      263.82006      3325.8557      2683.2073    
    342000  -1810.5535      8.499434      -1802.0541      268.38564      3383.4119      2683.2073    
    343000  -1810.9472      8.4205057     -1802.5267      265.89334      3351.9926      2683.2073    
    344000  -1811.1904      9.1795382     -1802.0108      289.86122      3654.1444      2683.2073    
    345000  -1810.7574      8.7693933     -1801.988       276.91012      3490.876       2683.2073    
    346000  -1810.9212      9.240958      -1801.6802      291.80066      3678.5941      2683.2073    
    347000  -1810.9412      8.3880845     -1802.5531      264.86957      3339.0865      2683.2073    
    348000  -1810.9384      8.9503325     -1801.9881      282.62361      3562.9033      2683.2073    
    349000  -1810.9665      9.5700242     -1801.3965      302.19155      3809.5871      2683.2073    
    350000  -1811.1209      9.8564381     -1801.2645      311.23561      3923.6013      2683.2073    
    351000  -1811.1294      8.330616      -1802.7988      263.0549       3316.2097      2683.2073    
    352000  -1810.6982      8.9614932     -1801.7367      282.97604      3567.3461      2683.2073    
    353000  -1810.0726      8.4199836     -1801.6526      265.87685      3351.7847      2683.2073    
    354000  -1810.655       8.7743054     -1801.8807      277.06523      3492.8313      2683.2073    
    355000  -1809.5892      8.7474767     -1800.8417      276.21806      3482.1515      2683.2073    
    356000  -1810.7601      9.0429175     -1801.7172      285.54716      3599.7591      2683.2073    
    357000  -1809.9048      9.4610064     -1800.4438      298.7491       3766.1898      2683.2073    
    358000  -1812.1214      8.6700754     -1803.4514      273.77397      3451.34        2683.2073    
    359000  -1810.4895      9.2724501     -1801.2171      292.79509      3691.1303      2683.2073    
    360000  -1811.2428      8.7531894     -1802.4896      276.39845      3484.4256      2683.2073    
    361000  -1811.1598      9.0013169     -1802.1585      284.23354      3583.1989      2683.2073    
    362000  -1810.7173      9.6132936     -1801.104       303.55786      3826.8115      2683.2073    
    363000  -1811.1511      8.2585715     -1802.8926      260.77996      3287.5306      2683.2073    
    364000  -1810.6157      7.9447478     -1802.671       250.87038      3162.6052      2683.2073    
    365000  -1810.107       8.6031763     -1801.5038      271.6615       3424.7091      2683.2073    
    366000  -1810.6778      9.1394541     -1801.5383      288.59548      3638.1879      2683.2073    
    367000  -1810.505       9.1817965     -1801.3232      289.93253      3655.0433      2683.2073    
    368000  -1811.9133      8.697829      -1803.2154      274.65034      3462.388       2683.2073    
    369000  -1811.2658      9.1883499     -1802.0775      290.13946      3657.6521      2683.2073    
    370000  -1811.8018      8.6512366     -1803.1506      273.1791       3443.8407      2683.2073    
    371000  -1810.9681      8.6574837     -1802.3106      273.37636      3446.3276      2683.2073    
    372000  -1810.6615      9.0767101     -1801.5848      286.61423      3613.2111      2683.2073    
    373000  -1811.77        8.6026325     -1803.1674      271.64433      3424.4927      2683.2073    
    374000  -1812.1575      8.9080051     -1803.2495      281.28705      3546.0539      2683.2073    
    375000  -1811.4729      9.6400103     -1801.8329      304.40149      3837.4468      2683.2073    
    376000  -1811.2029      8.8333151     -1802.3696      278.92857      3516.3217      2683.2073    
    377000  -1811.4899      9.0325672     -1802.4573      285.22033      3595.6389      2683.2073    
    378000  -1811.2629      9.6385548     -1801.6243      304.35553      3836.8674      2683.2073    
    379000  -1810.4997      10.014807     -1800.4849      316.23639      3986.6439      2683.2073    
    380000  -1810.9882      9.3453913     -1801.6428      295.09834      3720.1664      2683.2073    
    381000  -1810.9531      8.96843       -1801.9847      283.19508      3570.1075      2683.2073    
    382000  -1810.3531      8.4682331     -1801.8848      267.40042      3370.9916      2683.2073    
    383000  -1811.0493      9.2719133     -1801.7774      292.77813      3690.9166      2683.2073    
    384000  -1810.8531      8.9823946     -1801.8707      283.63604      3575.6664      2683.2073    
    385000  -1810.5433      9.3655452     -1801.1778      295.73474      3728.1891      2683.2073    
    386000  -1810.0185      8.3434774     -1801.675       263.46102      3321.3295      2683.2073    
    387000  -1811.0166      8.9886438     -1802.028       283.83337      3578.1541      2683.2073    
    388000  -1811.537       8.7471612     -1802.7898      276.2081       3482.0259      2683.2073    
    389000  -1810.6738      7.5155448     -1803.1582      237.31749      2991.7503      2683.2073    
    390000  -1810.8115      9.4513861     -1801.3602      298.44532      3762.3602      2683.2073    
    391000  -1810.6107      8.6300162     -1801.9807      272.50902      3435.3934      2683.2073    
    392000  -1810.9818      8.1583778     -1802.8234      257.61615      3247.646       2683.2073    
    393000  -1811.0928      8.8206479     -1802.2722      278.52858      3511.2791      2683.2073    
    394000  -1810.3995      8.8634774     -1801.536       279.881        3528.3285      2683.2073    
    395000  -1809.9475      9.4329316     -1800.5146      297.86259      3755.0139      2683.2073    
    396000  -1810.3972      8.8617841     -1801.5354      279.82753      3527.6544      2683.2073    
    397000  -1810.7288      9.3226603     -1801.4061      294.38057      3711.1177      2683.2073    
    398000  -1810.1166      8.2090912     -1801.9075      259.21753      3267.8337      2683.2073    
    399000  -1810.9855      8.585494      -1802.4         271.10315      3417.6703      2683.2073    
    400000  -1810.8814      9.6652941     -1801.2161      305.19987      3847.5116      2683.2073    
    401000  -1810.7544      8.2335784     -1802.5208      259.99075      3277.5815      2683.2073    
    402000  -1809.2115      9.3294742     -1799.8821      294.59573      3713.8302      2683.2073    
    403000  -1812.0045      9.2601981     -1802.7443      292.4082       3686.2531      2683.2073    
    404000  -1811.0684      8.4774954     -1802.5909      267.69289      3374.6787      2683.2073    
    405000  -1810.5209      8.103544      -1802.4174      255.88467      3225.818       2683.2073    
    406000  -1810.3087      9.1186943     -1801.19        287.93996      3629.924       2683.2073    
    407000  -1810.1928      8.9666529     -1801.2262      283.13896      3569.4001      2683.2073    
    408000  -1811.5172      8.2286612     -1803.2885      259.83548      3275.6241      2683.2073    
    409000  -1811.0852      8.3691895     -1802.716       264.27293      3331.5648      2683.2073    
    410000  -1811.4624      10.009863     -1801.4525      316.08029      3984.676       2683.2073    
    411000  -1810.7794      9.1979377     -1801.5815      290.44222      3661.4688      2683.2073    
    412000  -1811.2573      8.6875773     -1802.5698      274.32662      3458.3071      2683.2073    
    413000  -1810.5098      8.9364118     -1801.5733      282.18404      3557.3618      2683.2073    
    414000  -1810.4514      9.7762044     -1800.6752      308.70208      3891.6623      2683.2073    
    415000  -1810.1667      8.7433359     -1801.4234      276.08731      3480.5032      2683.2073    
    416000  -1811.1308      8.6016668     -1802.5291      271.61384      3424.1082      2683.2073    
    417000  -1811.3061      9.2535153     -1802.0525      292.19718      3683.5928      2683.2073    
    418000  -1810.649       9.069135      -1801.5799      286.37503      3610.1956      2683.2073    
    419000  -1809.0479      8.4509938     -1800.5969      266.85605      3364.1291      2683.2073    
    420000  -1811.2907      8.5468624     -1802.7438      269.88329      3402.292       2683.2073    
    421000  -1810.4738      8.5351216     -1801.9387      269.51255      3397.6183      2683.2073    
    422000  -1810.6892      8.762547      -1801.9267      276.69393      3488.1506      2683.2073    
    423000  -1811.2273      8.7911931     -1802.4361      277.59849      3499.5539      2683.2073    
    424000  -1810.8484      8.7727345     -1802.0756      277.01562      3492.206       2683.2073    
    425000  -1809.3198      9.0881668     -1800.2316      286.97599      3617.7717      2683.2073    
    426000  -1810.8284      8.9303513     -1801.8981      281.99267      3554.9493      2683.2073    
    427000  -1811.6541      9.430776      -1802.2233      297.79452      3754.1559      2683.2073    
    428000  -1811.1692      8.5523431     -1802.6169      270.05635      3404.4737      2683.2073    
    429000  -1812.6686      8.8434145     -1803.8252      279.24748      3520.3419      2683.2073    
    430000  -1810.6728      9.0194382     -1801.6534      284.80576      3590.4126      2683.2073    
    431000  -1810.2615      8.7895686     -1801.4719      277.54719      3498.9073      2683.2073    
    432000  -1811.0945      8.8384902     -1802.256       279.09198      3518.3817      2683.2073    
    433000  -1811.7162      8.7460161     -1802.9702      276.17194      3481.5701      2683.2073    
    434000  -1811.2259      8.3631297     -1802.8628      264.08158      3329.1526      2683.2073    
    435000  -1811.3554      9.071341      -1802.2841      286.44469      3611.0738      2683.2073    
    436000  -1810.9493      8.6589763     -1802.2903      273.42349      3446.9217      2683.2073    
    437000  -1811.1187      8.4412418     -1802.6775      266.54812      3360.2471      2683.2073    
    438000  -1810.8695      7.8337362     -1803.0357      247.36498      3118.4143      2683.2073    
    439000  -1811.7894      9.0585027     -1802.7308      286.03929      3605.9632      2683.2073    
    440000  -1810.5028      9.0870697     -1801.4158      286.94135      3617.335       2683.2073    
    441000  -1810.085       8.6794026     -1801.4055      274.06849      3455.0529      2683.2073    
    442000  -1811.5096      9.9732043     -1801.5364      314.92272      3970.083       2683.2073    
    443000  -1811.2907      8.0484288     -1803.2422      254.14431      3203.8781      2683.2073    
    444000  -1810.8821      8.1688137     -1802.7132      257.94569      3251.8003      2683.2073    
    445000  -1810.5352      9.2499703     -1801.2852      292.08524      3682.1816      2683.2073    
    446000  -1811.467       9.3426875     -1802.1243      295.01296      3719.0901      2683.2073    
    447000  -1811.2261      8.8817521     -1802.3444      280.45806      3535.6032      2683.2073    
    448000  -1811.7601      8.7469304     -1803.0132      276.20081      3481.9341      2683.2073    
    449000  -1811.5583      8.5235298     -1803.0348      269.14652      3393.0039      2683.2073    
    450000  -1811.6561      8.5346956     -1803.1214      269.4991       3397.4487      2683.2073    
    451000  -1811.443       9.0035374     -1802.4395      284.30366      3584.0829      2683.2073    
    452000  -1811.2437      8.4863149     -1802.7574      267.97138      3378.1895      2683.2073    
    453000  -1811.7626      9.135542      -1802.627       288.47195      3636.6306      2683.2073    
    454000  -1811.5371      9.4749021     -1802.0622      299.18789      3771.7214      2683.2073    
    455000  -1811.3835      9.1415433     -1802.2419      288.66146      3639.0196      2683.2073    
    456000  -1810.4835      8.2432505     -1802.2403      260.29617      3281.4317      2683.2073    
    457000  -1811.4923      8.6754703     -1802.8169      273.94432      3453.4876      2683.2073    
    458000  -1812.3966      7.9008612     -1804.4957      249.48458      3145.1351      2683.2073    
    459000  -1810.9251      9.3554587     -1801.5696      295.41624      3724.1739      2683.2073    
    460000  -1811.7566      8.02848       -1803.7281      253.51438      3195.9369      2683.2073    
    461000  -1810.9679      8.5419944     -1802.4259      269.72957      3400.3542      2683.2073    
    462000  -1811.3986      9.1476586     -1802.2509      288.85456      3641.4539      2683.2073    
    463000  -1811.7737      8.4920713     -1803.2816      268.15315      3380.481       2683.2073    
    464000  -1811.3745      8.8797875     -1802.4947      280.39602      3534.8211      2683.2073    
    465000  -1811.7866      9.6484636     -1802.1381      304.66842      3840.8119      2683.2073    
    466000  -1812.1607      8.84804       -1803.3126      279.39354      3522.1832      2683.2073    
    467000  -1811.2408      9.9317146     -1801.309       313.6126       3953.567       2683.2073    
    468000  -1810.4042      8.6886362     -1801.7155      274.36006      3458.7286      2683.2073    
    469000  -1810.4906      8.862995      -1801.6276      279.86577      3528.1365      2683.2073    
    470000  -1810.026       8.7312127     -1801.2948      275.7045       3475.6772      2683.2073    
    471000  -1811.9132      8.8197745     -1803.0935      278.501        3510.9315      2683.2073    
    472000  -1810.9536      9.4325324     -1801.5211      297.84998      3754.855       2683.2073    
    473000  -1811.6041      8.7694103     -1802.8347      276.91066      3490.8827      2683.2073    
    474000  -1811.9252      8.5635948     -1803.3616      270.41164      3408.9527      2683.2073    
    475000  -1811.7716      9.1236785     -1802.6479      288.09734      3631.9081      2683.2073    
    476000  -1811.2634      10.032044     -1801.2313      316.78069      3993.5056      2683.2073    
    477000  -1811.5007      9.9114494     -1801.5892      312.97269      3945.4999      2683.2073    
    478000  -1811.4019      9.8270739     -1801.5748      310.30838      3911.9122      2683.2073    
    479000  -1812.2823      9.0648643     -1803.2174      286.24017      3608.4956      2683.2073    
    480000  -1811.5505      8.7692089     -1802.7813      276.9043       3490.8026      2683.2073    
    481000  -1811.0101      9.7824198     -1801.2277      308.89834      3894.1364      2683.2073    
    482000  -1810.7284      8.2591994     -1802.4692      260.79979      3287.7806      2683.2073    
    483000  -1810.7694      8.2244968     -1802.545       259.70398      3273.9663      2683.2073    
    484000  -1810.8581      9.3447205     -1801.5134      295.07716      3719.8993      2683.2073    
    485000  -1811.0784      8.37784       -1802.7006      264.54609      3335.0084      2683.2073    
    486000  -1810.7965      9.616526      -1801.1799      303.65993      3828.0983      2683.2073    
    487000  -1810.944       8.1435874     -1802.8004      257.14912      3241.7583      2683.2073    
    488000  -1810.8154      8.1946914     -1802.6207      258.76282      3262.1015      2683.2073    
    489000  -1811.7136      9.3900496     -1802.3236      296.50851      3737.9437      2683.2073    
    490000  -1811.9205      7.6992141     -1804.2212      243.11719      3064.8644      2683.2073    
    491000  -1810.9351      8.310447      -1802.6246      262.41803      3308.181       2683.2073    
    492000  -1809.7718      8.2166124     -1801.5552      259.45502      3270.8277      2683.2073    
    493000  -1810.1944      8.8331349     -1801.3613      278.92288      3516.2499      2683.2073    
    494000  -1810.1866      9.1391931     -1801.0474      288.58724      3638.084       2683.2073    
    495000  -1812.5446      9.088152      -1803.4565      286.97552      3617.7658      2683.2073    
    496000  -1811.3621      8.7694192     -1802.5927      276.91093      3490.8863      2683.2073    
    497000  -1811.488       9.9896751     -1801.4983      315.44282      3976.6396      2683.2073    
    498000  -1811.0858      9.924755      -1801.1611      313.39284      3950.7965      2683.2073    
    499000  -1811.4043      9.7616565     -1801.6426      308.2427       3885.8711      2683.2073    
    500000  -1812.0201      9.3236211     -1802.6964      294.41091      3711.5002      2683.2073    
    501000  -1810.7185      8.4864659     -1802.2321      267.97615      3378.2497      2683.2073    
    502000  -1811.3212      8.6887539     -1802.6324      274.36378      3458.7755      2683.2073    
    503000  -1811.391       9.176117      -1802.2149      289.75318      3652.7825      2683.2073    
    504000  -1809.9927      9.6703547     -1800.3224      305.35967      3849.5262      2683.2073    
    505000  -1810.534       8.9549638     -1801.579       282.76986      3564.7469      2683.2073    
    506000  -1810.7491      8.8637545     -1801.8854      279.88975      3528.4388      2683.2073    
    507000  -1811.1712      8.8302968     -1802.3409      278.83326      3515.1201      2683.2073    
    508000  -1811.666       8.6681038     -1802.9979      273.71171      3450.5552      2683.2073    
    509000  -1810.7883      9.80811       -1800.9802      309.70956      3904.3631      2683.2073    
    510000  -1810.1694      8.9196997     -1801.2497      281.65633      3550.7092      2683.2073    
    511000  -1811.1937      8.5853802     -1802.6083      271.09956      3417.625       2683.2073    
    512000  -1811.5845      8.3485709     -1803.2359      263.62186      3323.3571      2683.2073    
    513000  -1812.5618      8.1987825     -1804.363       258.89201      3263.7301      2683.2073    
    514000  -1811.3561      9.031536      -1802.3246      285.18777      3595.2284      2683.2073    
    515000  -1813.4154      8.4291854     -1804.9862      266.16741      3355.4477      2683.2073    
    516000  -1811.2291      8.6463513     -1802.5828      273.02483      3441.896       2683.2073    
    517000  -1811.0291      9.2923629     -1801.7368      293.42387      3699.0571      2683.2073    
    518000  -1811.43        8.9425769     -1802.4874      282.37872      3559.816       2683.2073    
    519000  -1811.9744      9.6306421     -1802.3438      304.10567      3833.7176      2683.2073    
    520000  -1811.572       9.4974351     -1802.0745      299.89941      3780.6912      2683.2073    
    521000  -1811.3683      8.2764104     -1803.0919      261.34325      3294.6318      2683.2073    
    522000  -1809.9055      8.4310957     -1801.4744      266.22774      3356.2082      2683.2073    
    523000  -1811.5481      8.6609659     -1802.8871      273.48632      3447.7137      2683.2073    
    524000  -1811.1742      9.6119193     -1801.5623      303.51446      3826.2645      2683.2073    
    525000  -1811.766       8.6910672     -1803.075       274.43682      3459.6963      2683.2073    
    526000  -1812.2331      9.3312508     -1802.9019      294.65183      3714.5374      2683.2073    
    527000  -1810.8884      8.4429228     -1802.4455      266.6012       3360.9163      2683.2073    
    528000  -1811.0326      8.696118      -1802.3365      274.59631      3461.7069      2683.2073    
    529000  -1811.6533      8.9156061     -1802.7377      281.52706      3549.0796      2683.2073    
    530000  -1811.5652      8.9936925     -1802.5715      283.99279      3580.1639      2683.2073    
    531000  -1810.444       9.7774905     -1800.6665      308.74269      3892.1742      2683.2073    
    532000  -1811.0615      10.072618     -1800.9889      318.06191      4009.6573      2683.2073    
    533000  -1810.5296      8.9279214     -1801.6017      281.91594      3553.982       2683.2073    
    534000  -1810.9841      8.3657181     -1802.6184      264.16331      3330.183       2683.2073    
    535000  -1810.2771      8.7302099     -1801.5469      275.67283      3475.278       2683.2073    
    536000  -1809.9445      8.5939151     -1801.3506      271.36906      3421.0225      2683.2073    
    537000  -1810.6633      8.7441336     -1801.9192      276.1125       3480.8207      2683.2073    
    538000  -1810.6975      9.0978327     -1801.5996      287.28121      3621.6195      2683.2073    
    539000  -1811.8397      8.4183059     -1803.4214      265.82387      3351.1169      2683.2073    
    540000  -1811.7743      8.021474      -1803.7528      253.29316      3193.148       2683.2073    
    541000  -1811.5104      9.6515882     -1801.8588      304.76709      3842.0557      2683.2073    
    542000  -1811.8751      8.4727941     -1803.4023      267.54444      3372.8072      2683.2073    
    543000  -1810.0739      8.8428958     -1801.231       279.2311       3520.1355      2683.2073    
    544000  -1810.8798      9.3747143     -1801.5051      296.02427      3731.8391      2683.2073    
    545000  -1812.0755      7.8807519     -1804.1948      248.84959      3137.1301      2683.2073    
    546000  -1811.2395      8.6278625     -1802.6116      272.44102      3434.5361      2683.2073    
    547000  -1811.2893      9.4008855     -1801.8884      296.85068      3742.2572      2683.2073    
    548000  -1810.1739      8.9437086     -1801.2302      282.41445      3560.2665      2683.2073    
    549000  -1810.7528      8.334899      -1802.4179      263.19014      3317.9147      2683.2073    
    550000  -1811.7207      8.4914776     -1803.2292      268.1344       3380.2447      2683.2073    
    551000  -1811.8243      8.9032271     -1802.9211      281.13617      3544.1518      2683.2073    
    552000  -1811.298       9.9567582     -1801.3412      314.4034       3963.5362      2683.2073    
    553000  -1811.6841      9.607215      -1802.0769      303.36592      3824.3918      2683.2073    
    554000  -1812.3695      9.3012732     -1803.0682      293.70523      3702.604       2683.2073    
    555000  -1812.0687      9.4064643     -1802.6622      297.02684      3744.478       2683.2073    
    556000  -1810.9431      8.8146391     -1802.1285      278.33884      3508.8872      2683.2073    
    557000  -1811.55        8.6797494     -1802.8702      274.07944      3455.191       2683.2073    
    558000  -1811.034       9.2165999     -1801.8174      291.03151      3668.8977      2683.2073    
    559000  -1811.0782      9.0739902     -1802.0042      286.52834      3612.1284      2683.2073    
    560000  -1811.1254      9.0769251     -1802.0484      286.62102      3613.2967      2683.2073    
    561000  -1810.2939      8.9718141     -1801.3221      283.30194      3571.4546      2683.2073    
    562000  -1811.9308      8.6512226     -1803.2796      273.17865      3443.8352      2683.2073    
    563000  -1811.4906      8.2703577     -1803.2203      261.15213      3292.2224      2683.2073    
    564000  -1811.0312      8.9656134     -1802.0656      283.10614      3568.9863      2683.2073    
    565000  -1810.7218      9.1556394     -1801.5662      289.10657      3644.6309      2683.2073    
    566000  -1810.3794      9.031808      -1801.3476      285.19636      3595.3367      2683.2073    
    567000  -1810.7648      9.090131      -1801.6746      287.03802      3618.5536      2683.2073    
    568000  -1810.4874      8.7522591     -1801.7351      276.36907      3484.0553      2683.2073    
    569000  -1810.8917      8.3749659     -1802.5168      264.45533      3333.8643      2683.2073    
    570000  -1812.2867      8.5955219     -1803.6912      271.4198       3421.6621      2683.2073    
    571000  -1810.3898      9.4825635     -1800.9073      299.42981      3774.7712      2683.2073    
    572000  -1810.5347      9.5251741     -1801.0096      300.77532      3791.7334      2683.2073    
    573000  -1811.4282      8.1472217     -1803.281       257.26388      3243.205       2683.2073    
    574000  -1811.6943      10.015844     -1801.6785      316.26915      3987.0568      2683.2073    
    575000  -1811.0861      8.9983001     -1802.0878      284.13828      3581.998       2683.2073    
    576000  -1811.5778      8.4438633     -1803.1339      266.6309       3361.2906      2683.2073    
    577000  -1810.6528      8.7599514     -1801.8929      276.61197      3487.1174      2683.2073    
    578000  -1810.5145      8.5131229     -1802.0014      268.8179       3388.8611      2683.2073    
    579000  -1811.9477      8.1045213     -1803.8432      255.91553      3226.2071      2683.2073    
    580000  -1811.0848      8.3075741     -1802.7773      262.32731      3307.0373      2683.2073    
    581000  -1810.5295      8.9498623     -1801.5796      282.60877      3562.7162      2683.2073    
    582000  -1810.514       8.9204375     -1801.5935      281.67962      3551.0029      2683.2073    
    583000  -1811.9473      9.1601925     -1802.7871      289.25034      3646.4433      2683.2073    
    584000  -1811.1253      8.8339625     -1802.2914      278.94901      3516.5794      2683.2073    
    585000  -1811.2722      9.4320422     -1801.8402      297.83451      3754.6599      2683.2073    
    586000  -1810.8138      8.6499833     -1802.1638      273.13952      3443.3418      2683.2073    
    587000  -1810.7918      8.5715159     -1802.2203      270.66177      3412.1059      2683.2073    
    588000  -1811.2394      8.1477218     -1803.0917      257.27967      3243.4041      2683.2073    
    589000  -1811.7082      8.5391638     -1803.169       269.64019      3399.2274      2683.2073    
    590000  -1811.717       9.0136727     -1802.7033      284.6237       3588.1175      2683.2073    
    591000  -1811.2435      9.1453936     -1802.0981      288.78304      3640.5523      2683.2073    
    592000  -1812.0923      9.199588      -1802.8928      290.49433      3662.1257      2683.2073    
    593000  -1812.2171      9.698815      -1802.5183      306.25836      3860.8555      2683.2073    
    594000  -1812.2092      9.3506411     -1802.8586      295.26411      3722.2562      2683.2073    
    595000  -1812.2449      8.7791494     -1803.4658      277.21818      3494.7596      2683.2073    
    596000  -1811.7354      9.1580756     -1802.5774      289.18349      3645.6006      2683.2073    
    597000  -1810.7908      8.417804      -1802.373       265.80802      3350.9171      2683.2073    
    598000  -1811.2162      8.9405052     -1802.2757      282.3133       3558.9913      2683.2073    
    599000  -1810.9566      9.0629621     -1801.8936      286.18011      3607.7384      2683.2073    
    600000  -1810.6284      8.7401648     -1801.8882      275.98717      3479.2408      2683.2073    
    601000  -1811.8279      9.3287149     -1802.4991      294.57175      3713.5279      2683.2073    
    602000  -1810.3528      9.1743393     -1801.1785      289.69705      3652.0748      2683.2073    
    603000  -1810.7352      8.2361796     -1802.499       260.07289      3278.617       2683.2073    
    604000  -1810.8639      8.555437      -1802.3084      270.15404      3405.7053      2683.2073    
    605000  -1811.2889      8.3069059     -1802.982       262.30621      3306.7713      2683.2073    
    606000  -1810.8088      9.2922651     -1801.5165      293.42078      3699.0181      2683.2073    
    607000  -1810.1697      8.2466991     -1801.923       260.40507      3282.8045      2683.2073    
    608000  -1810.9506      8.6934911     -1802.2571      274.51336      3460.6612      2683.2073    
    609000  -1810.3464      8.3819029     -1801.9645      264.67438      3336.6257      2683.2073    
    610000  -1811.7488      8.4348498     -1803.3139      266.34628      3357.7026      2683.2073    
    611000  -1810.6909      9.2713237     -1801.4196      292.75952      3690.6819      2683.2073    
    612000  -1810.8578      9.1784419     -1801.6794      289.8266       3653.708       2683.2073    
    613000  -1811.0648      8.102151      -1802.9627      255.84068      3225.2635      2683.2073    
    614000  -1812.3766      9.0483565     -1803.3282      285.71891      3601.9242      2683.2073    
    615000  -1809.6571      9.0844417     -1800.5726      286.85837      3616.2889      2683.2073    
    616000  -1810.8611      8.8769467     -1801.9842      280.30632      3533.6903      2683.2073    
    617000  -1810.6464      9.0802008     -1801.5662      286.72445      3614.6007      2683.2073    
    618000  -1811.6499      9.2879766     -1802.362       293.28536      3697.311       2683.2073    
    619000  -1810.6872      7.7387787     -1802.9484      244.36652      3080.6141      2683.2073    
    620000  -1811.5773      8.2242476     -1803.353       259.69611      3273.8671      2683.2073    
    621000  -1810.6189      9.2952282     -1801.3237      293.51435      3700.1977      2683.2073    
    622000  -1811.6495      9.2746721     -1802.3748      292.86525      3692.0148      2683.2073    
    623000  -1810.0592      8.3818167     -1801.6773      264.67166      3336.5914      2683.2073    
    624000  -1810.0862      8.3177035     -1801.7685      262.64716      3311.0696      2683.2073    
    625000  -1811.5544      9.2648397     -1802.2895      292.55477      3688.1008      2683.2073    
    626000  -1810.2981      8.2925853     -1802.0055      261.85401      3301.0706      2683.2073    
    627000  -1810.6707      8.2905056     -1802.3802      261.78834      3300.2428      2683.2073    
    628000  -1809.959       8.3281139     -1801.6309      262.97589      3315.2137      2683.2073    
    629000  -1810.4603      9.453895      -1801.0064      298.52455      3763.359       2683.2073    
    630000  -1810.4757      8.6173488     -1801.8584      272.10903      3430.3509      2683.2073    
    631000  -1811.196       9.31678       -1801.8792      294.19489      3708.7769      2683.2073    
    632000  -1810.8306      9.0233917     -1801.8072      284.9306       3591.9864      2683.2073    
    633000  -1810.387       9.2613731     -1801.1256      292.44531      3686.7208      2683.2073    
    634000  -1812.3184      8.7153618     -1803.603       275.20397      3469.3674      2683.2073    
    635000  -1810.8978      10.133608     -1800.7642      319.98777      4033.9358      2683.2073    
    636000  -1810.6321      8.5926858     -1802.0394      271.33025      3420.5331      2683.2073    
    637000  -1811.0607      8.6502456     -1802.4105      273.14781      3443.4463      2683.2073    
    638000  -1812.3599      9.3234493     -1803.0365      294.40548      3711.4318      2683.2073    
    639000  -1811.6088      8.9752579     -1802.6336      283.41068      3572.8255      2683.2073    
    640000  -1810.4825      9.1114516     -1801.371       287.71125      3627.0408      2683.2073    
    641000  -1811.0154      9.8433607     -1801.172       310.82266      3918.3955      2683.2073    
    642000  -1810.6884      9.1138093     -1801.5746      287.7857       3627.9794      2683.2073    
    643000  -1810.9158      8.5463965     -1802.3694      269.86858      3402.1065      2683.2073    
    644000  -1811.2232      8.4966188     -1802.7266      268.29675      3382.2913      2683.2073    
    645000  -1812.3817      9.7271525     -1802.6546      307.15317      3872.1359      2683.2073    
    646000  -1810.318       9.1532357     -1801.1648      289.03067      3643.674       2683.2073    
    647000  -1811.0362      8.9941159     -1802.0421      284.00616      3580.3324      2683.2073    
    648000  -1810.6374      9.0702997     -1801.5671      286.4118       3610.6593      2683.2073    
    649000  -1811.5806      9.2668571     -1802.3137      292.61848      3688.9039      2683.2073    
    650000  -1811.2085      9.9036436     -1801.3048      312.72621      3942.3926      2683.2073    
    651000  -1811.7389      8.7724879     -1802.9664      277.00784      3492.1078      2683.2073    
    652000  -1811.1811      8.1949273     -1802.9862      258.77027      3262.1954      2683.2073    
    653000  -1810.888       8.9476711     -1801.9403      282.53957      3561.8439      2683.2073    
    654000  -1811.6185      9.4177281     -1802.2008      297.38251      3748.9618      2683.2073    
    655000  -1811.0182      9.0014356     -1802.0168      284.23729      3583.2462      2683.2073    
    656000  -1810.6607      9.386962      -1801.2738      296.41101      3736.7146      2683.2073    
    657000  -1812.1198      8.2798845     -1803.8399      261.45296      3296.0148      2683.2073    
    658000  -1811.5217      8.3939997     -1803.1277      265.05636      3341.4412      2683.2073    
    659000  -1811.9616      9.3352726     -1802.6263      294.77882      3716.1384      2683.2073    
    660000  -1811.2493      8.8112162     -1802.438       278.23075      3507.5246      2683.2073    
    661000  -1812.6143      8.9697482     -1803.6445      283.2367       3570.6322      2683.2073    
    662000  -1810.9285      8.5640958     -1802.3644      270.42746      3409.1522      2683.2073    
    663000  -1812.3911      10.127282     -1802.2638      319.788        4031.4173      2683.2073    
    664000  -1812.0786      10.443854     -1801.6348      329.78438      4157.437       2683.2073    
    665000  -1810.6722      8.9595616     -1801.7126      282.91504      3566.5772      2683.2073    
    666000  -1811.6269      9.1546695     -1802.4722      289.07594      3644.2448      2683.2073    
    667000  -1809.9021      9.4089221     -1800.4932      297.10444      3745.4564      2683.2073    
    668000  -1810.6566      8.6960696     -1801.9605      274.59478      3461.6876      2683.2073    
    669000  -1811.2201      8.2727623     -1802.9473      261.22806      3293.1796      2683.2073    
    670000  -1810.6004      8.7086385     -1801.8918      274.99167      3466.691       2683.2073    
    671000  -1810.8657      9.0532978     -1801.8124      285.87494      3603.8913      2683.2073    
    672000  -1811.6225      8.6255709     -1802.9969      272.36866      3433.6239      2683.2073    
    673000  -1810.611       9.1505736     -1801.4604      288.9466       3642.6143      2683.2073    
    674000  -1811.0107      8.512494      -1802.4982      268.79804      3388.6108      2683.2073    
    675000  -1810.3081      9.0482441     -1801.2599      285.71536      3601.8795      2683.2073    
    676000  -1810.6961      8.2148156     -1802.4813      259.39828      3270.1124      2683.2073    
    677000  -1811.7598      9.0846743     -1802.6752      286.86571      3616.3815      2683.2073    
    678000  -1810.2309      9.091161      -1801.1397      287.07054      3618.9636      2683.2073    
    679000  -1810.6424      8.7060283     -1801.9364      274.90925      3465.6519      2683.2073    
    680000  -1811.2767      7.8669518     -1803.4097      248.41383      3131.6366      2683.2073    
    681000  -1811.1381      8.4559001     -1802.6822      267.01098      3366.0822      2683.2073    
    682000  -1810.7244      9.0979864     -1801.6264      287.28607      3621.6807      2683.2073    
    683000  -1811.0756      10.220823     -1800.8547      322.74173      4068.6536      2683.2073    
    684000  -1809.4573      7.5493673     -1801.908       238.3855       3005.2142      2683.2073    
    685000  -1811.1259      8.2195783     -1802.9063      259.54867      3272.0084      2683.2073    
    686000  -1811.137       8.1343278     -1803.0027      256.85673      3238.0723      2683.2073    
    687000  -1811.3232      9.4507577     -1801.8724      298.42548      3762.1101      2683.2073    
    688000  -1809.8625      8.9121444     -1800.9503      281.41775      3547.7016      2683.2073    
    689000  -1810.7855      8.8606014     -1801.9249      279.79018      3527.1836      2683.2073    
    690000  -1811.3136      8.7616437     -1802.552       276.66541      3487.791       2683.2073    
    691000  -1810.7978      7.9705325     -1802.8273      251.68458      3172.8695      2683.2073    
    692000  -1811.0172      8.1441439     -1802.8731      257.16669      3241.9798      2683.2073    
    693000  -1810.529       9.678686      -1800.8503      305.62275      3852.8426      2683.2073    
    694000  -1810.2892      9.199912      -1801.0893      290.50456      3662.2547      2683.2073    
    695000  -1810.8638      9.1844151     -1801.6793      290.01521      3656.0857      2683.2073    
    696000  -1811.4347      8.8033499     -1802.6313      277.98236      3504.3932      2683.2073    
    697000  -1810.7151      8.8127036     -1801.9024      278.27772      3508.1167      2683.2073    
    698000  -1811.0964      9.4830323     -1801.6134      299.44462      3774.9578      2683.2073    
    699000  -1810.1536      8.7817091     -1801.3719      277.29901      3495.7786      2683.2073    
    700000  -1810.5265      8.6500733     -1801.8764      273.14236      3443.3777      2683.2073    
    701000  -1811.858       8.0306916     -1803.8273      253.58422      3196.8173      2683.2073    
    702000  -1811.963       8.2380225     -1803.725       260.13108      3279.3505      2683.2073    
    703000  -1810.3971      9.5716969     -1800.8255      302.24437      3810.2529      2683.2073    
    704000  -1811.689       8.5203536     -1803.1686      269.04622      3391.7395      2683.2073    
    705000  -1811.0404      8.1660854     -1802.8743      257.85953      3250.7142      2683.2073    
    706000  -1810.1939      8.7941497     -1801.3998      277.69185      3500.7309      2683.2073    
    707000  -1810.1462      8.9449711     -1801.2012      282.45432      3560.7691      2683.2073    
    708000  -1811.3045      9.0816221     -1802.2229      286.76933      3615.1664      2683.2073    
    709000  -1811.251       9.624972      -1801.6261      303.92663      3831.4604      2683.2073    
    710000  -1811.7907      9.6888706     -1802.1019      305.94435      3856.8968      2683.2073    
    711000  -1810.8221      8.8820731     -1801.94        280.4682       3535.731       2683.2073    
    712000  -1810.1424      9.6318122     -1800.5106      304.14262      3834.1834      2683.2073    
    713000  -1811.4414      8.660768      -1802.7806      273.48007      3447.635       2683.2073    
    714000  -1809.7239      8.562004      -1801.1619      270.36141      3408.3195      2683.2073    
    715000  -1811.5436      8.666792      -1802.8768      273.67029      3450.033       2683.2073    
    716000  -1810.9785      7.9091929     -1803.0693      249.74767      3148.4517      2683.2073    
    717000  -1810.7183      8.0446186     -1802.6737      254.02399      3202.3613      2683.2073    
    718000  -1811.261       9.5421781     -1801.7188      301.31225      3798.5023      2683.2073    
    719000  -1809.4356      8.6537391     -1800.7818      273.25812      3444.8369      2683.2073    
    720000  -1809.819       8.4449047     -1801.3741      266.66378      3361.7052      2683.2073    
    721000  -1811.3088      9.2123926     -1802.0964      290.89866      3667.2229      2683.2073    
    722000  -1810.978       9.300493      -1801.6775      293.68059      3702.2935      2683.2073    
    723000  -1811.9959      9.1261207     -1802.8698      288.17446      3632.8802      2683.2073    
    724000  -1811.5263      8.8807428     -1802.6456      280.42619      3535.2014      2683.2073    
    725000  -1811.4025      9.1089803     -1802.2935      287.63322      3626.0571      2683.2073    
    726000  -1810.1099      9.4293803     -1800.6805      297.75045      3753.6003      2683.2073    
    727000  -1810.8799      8.1176441     -1802.7622      256.32991      3231.4309      2683.2073    
    728000  -1811.5169      8.6531246     -1802.8638      273.23872      3444.5923      2683.2073    
    729000  -1810.7174      8.1218716     -1802.5955      256.4634       3233.1138      2683.2073    
[...]
   1630000  -1811.4448      8.317599      -1803.1272      262.64386      3311.028       2683.2073    
   1631000  -1811.5506      8.7172727     -1802.8334      275.26431      3470.128       2683.2073    
   1632000  -1810.7737      9.0788318     -1801.6948      286.68122      3614.0557      2683.2073    
   1633000  -1812.1761      9.6276305     -1802.5485      304.01058      3832.5187      2683.2073    
   1634000  -1812.2257      8.7272757     -1803.4985      275.58018      3474.11        2683.2073    
   1635000  -1811.4666      9.5788029     -1801.8878      302.46875      3813.0817      2683.2073    
   1636000  -1811.8307      9.2032569     -1802.6275      290.61018      3663.5862      2683.2073    
   1637000  -1811.8218      8.6544615     -1803.1674      273.28093      3445.1245      2683.2073    
   1638000  -1811.4387      9.0167102     -1802.422       284.71961      3589.3266      2683.2073    
   1639000  -1811.8414      8.6302822     -1803.2111      272.51742      3435.4993      2683.2073    
   1640000  -1811.0346      8.9419893     -1802.0926      282.36016      3559.5821      2683.2073    
   1641000  -1812.212       8.6138419     -1803.5981      271.99829      3428.9549      2683.2073    
   1642000  -1812.2366      8.1848687     -1804.0517      258.45265      3258.1914      2683.2073    
   1643000  -1810.4094      9.2478961     -1801.1615      292.01975      3681.356       2683.2073    
   1644000  -1811.7062      8.6555497     -1803.0507      273.31529      3445.5577      2683.2073    
   1645000  -1812.734       8.556315      -1804.1777      270.18177      3406.0548      2683.2073    
   1646000  -1812.5956      9.7536423     -1802.842       307.98964      3882.6809      2683.2073    
   1647000  -1811.8855      9.2115807     -1802.674       290.87302      3666.8997      2683.2073    
   1648000  -1813.6752      8.9579502     -1804.7172      282.86416      3565.9357      2683.2073    
   1649000  -1811.9601      9.5196695     -1802.4405      300.6015       3789.5422      2683.2073    
   1650000  -1811.1696      8.9191122     -1802.2505      281.63777      3550.4753      2683.2073    
   1651000  -1813.1562      9.1517366     -1804.0045      288.98333      3643.0772      2683.2073    
   1652000  -1812.3854      8.4045808     -1803.9808      265.39048      3345.6533      2683.2073    
   1653000  -1811.276       8.9578925     -1802.3181      282.86234      3565.9128      2683.2073    
   1654000  -1810.8705      9.939642      -1800.9309      313.86293      3956.7227      2683.2073    
   1655000  -1811.4891      8.617725      -1802.8714      272.12091      3430.5006      2683.2073    
   1656000  -1811.4604      9.1422834     -1802.3182      288.68483      3639.3142      2683.2073    
   1657000  -1812.4165      8.8506874     -1803.5658      279.47713      3523.2371      2683.2073    
   1658000  -1811.7867      9.9664052     -1801.8203      314.70803      3967.3764      2683.2073    
   1659000  -1810.9198      9.2402352     -1801.6796      291.77784      3678.3063      2683.2073    
   1660000  -1811.6191      9.2291211     -1802.39        291.42689      3673.8821      2683.2073    
   1661000  -1812.355       9.3255302     -1803.0295      294.47119      3712.2601      2683.2073    
   1662000  -1811.5354      7.6318001     -1803.9036      240.98847      3038.0286      2683.2073    
   1663000  -1812.7117      8.8711725     -1803.8405      280.12399      3531.3917      2683.2073    
   1664000  -1812.6532      8.8225994     -1803.8306      278.5902       3512.056       2683.2073    
   1665000  -1811.3679      9.2832969     -1802.0846      293.13759      3695.4481      2683.2073    
   1666000  -1810.3637      9.3723236     -1800.9914      295.94878      3730.8874      2683.2073    
   1667000  -1811.7599      9.0011528     -1802.7588      284.22836      3583.1336      2683.2073    
   1668000  -1812.0398      8.442469      -1803.5973      266.58687      3360.7356      2683.2073    
   1669000  -1812.0326      7.8210751     -1804.2115      246.96518      3113.3742      2683.2073    
   1670000  -1811.2266      8.3124251     -1802.9142      262.48049      3308.9684      2683.2073    
   1671000  -1811.8645      8.7063769     -1803.1581      274.92026      3465.7907      2683.2073    
   1672000  -1811.8958      8.391732      -1803.5041      264.98475      3340.5384      2683.2073    
   1673000  -1811.4045      8.8307052     -1802.5738      278.84616      3515.2827      2683.2073    
   1674000  -1811.1048      9.4234339     -1801.6814      297.56268      3751.2332      2683.2073    
   1675000  -1812.1677      8.6084802     -1803.5592      271.82898      3426.8205      2683.2073    
   1676000  -1811.5862      8.7956246     -1802.7906      277.73842      3501.318       2683.2073    
   1677000  -1810.8977      8.9935186     -1801.9042      283.9873       3580.0946      2683.2073    
   1678000  -1810.4646      9.1984059     -1801.2662      290.457        3661.6551      2683.2073    
   1679000  -1810.76        8.9072579     -1801.8528      281.26345      3545.7564      2683.2073    
   1680000  -1810.915       9.2746239     -1801.6403      292.86373      3691.9956      2683.2073    
   1681000  -1810.4697      8.4919262     -1801.9778      268.14857      3380.4233      2683.2073    
   1682000  -1813.2259      9.0633648     -1804.1626      286.19282      3607.8987      2683.2073    
   1683000  -1812.532       9.0544844     -1803.4775      285.91241      3604.3636      2683.2073    
   1684000  -1811.6433      9.7954647     -1801.8478      309.31026      3899.3293      2683.2073    
   1685000  -1811.3507      9.8014799     -1801.5493      309.5002       3901.7238      2683.2073    
   1686000  -1812.0267      8.849852      -1803.1768      279.45075      3522.9046      2683.2073    
   1687000  -1811.904       9.0432255     -1802.8608      285.55689      3599.8817      2683.2073    
   1688000  -1810.6094      8.894703      -1801.7147      280.86701      3540.7586      2683.2073    
   1689000  -1810.9462      9.1801188     -1801.766       289.87955      3654.3755      2683.2073    
   1690000  -1811.874       10.012206     -1801.8617      316.15426      3985.6084      2683.2073    
   1691000  -1811.3285      7.8392553     -1803.4892      247.53926      3120.6113      2683.2073    
   1692000  -1811.2672      8.2335254     -1803.0337      259.98908      3277.5604      2683.2073    
   1693000  -1810.621       8.8097871     -1801.8113      278.18563      3506.9557      2683.2073    
   1694000  -1810.4599      10.070924     -1800.389       318.0084       4008.9827      2683.2073    
   1695000  -1810.7893      8.973281      -1801.816       283.34826      3572.0385      2683.2073    
   1696000  -1811.1616      8.6673575     -1802.4942      273.68815      3450.2581      2683.2073    
   1697000  -1811.5705      8.608277      -1802.9622      271.82257      3426.7396      2683.2073    
   1698000  -1811.9451      9.4029016     -1802.5422      296.91434      3743.0598      2683.2073    
   1699000  -1811.6872      9.1140412     -1802.5732      287.79303      3628.0717      2683.2073    
   1700000  -1812.0529      9.1888196     -1802.8641      290.15429      3657.8391      2683.2073    
   1701000  -1811.0319      8.51585       -1802.5161      268.90401      3389.9467      2683.2073    
   1702000  -1812.677       8.7764338     -1803.9006      277.13243      3493.6786      2683.2073    
   1703000  -1811.9022      8.6134744     -1803.2887      271.98669      3428.8086      2683.2073    
   1704000  -1811.062       9.0715721     -1801.9904      286.45198      3611.1658      2683.2073    
   1705000  -1810.9552      9.0295309     -1801.9256      285.12445      3594.4303      2683.2073    
   1706000  -1810.9999      9.3399023     -1801.66        294.92502      3717.9813      2683.2073    
   1707000  -1811.4863      8.9260251     -1802.5603      281.85606      3553.2272      2683.2073    
   1708000  -1810.4102      8.3572594     -1802.0529      263.89621      3326.8158      2683.2073    
   1709000  -1811.2851      8.9326079     -1802.3525      282.06393      3555.8476      2683.2073    
   1710000  -1810.2001      9.6320338     -1800.5681      304.14962      3834.2716      2683.2073    
   1711000  -1809.8635      8.7578226     -1801.1057      276.54475      3486.27        2683.2073    
   1712000  -1809.2061      9.5652406     -1799.6408      302.0405       3807.6828      2683.2073    
   1713000  -1810.807       9.6067056     -1801.2003      303.34983      3824.189       2683.2073    
   1714000  -1811.6578      8.7558547     -1802.902       276.48261      3485.4866      2683.2073    
   1715000  -1811.769       9.1976793     -1802.5713      290.43406      3661.3659      2683.2073    
   1716000  -1811.5261      7.877235      -1803.6489      248.73854      3135.7301      2683.2073    
   1717000  -1811.2303      7.7770879     -1803.4532      245.57621      3095.864       2683.2073    
   1718000  -1810.8079      8.9172467     -1801.8906      281.57887      3549.7327      2683.2073    
   1719000  -1810.7177      9.1664623     -1801.5513      289.44832      3648.9392      2683.2073    
   1720000  -1811.9075      8.9008919     -1803.0066      281.06243      3543.2223      2683.2073    
   1721000  -1812.231       8.9781675     -1803.2529      283.50256      3573.9837      2683.2073    
   1722000  -1810.3649      8.7905223     -1801.5744      277.57731      3499.2869      2683.2073    
   1723000  -1811.355       8.8591306     -1802.4958      279.74374      3526.5982      2683.2073    
   1724000  -1811.9364      8.6151807     -1803.3212      272.04056      3429.4878      2683.2073    
   1725000  -1810.189       8.0619622     -1802.1271      254.57165      3209.2654      2683.2073    
   1726000  -1812.0771      8.343702      -1803.7334      263.46811      3321.4189      2683.2073    
   1727000  -1810.5249      8.5501677     -1801.9748      269.98766      3403.6078      2683.2073    
   1728000  -1810.7786      9.1644663     -1801.6142      289.38529      3648.1447      2683.2073    
   1729000  -1810.4188      7.9804004     -1802.4384      251.99618      3176.7977      2683.2073    
   1730000  -1811.1188      8.7355725     -1802.3832      275.84216      3477.4127      2683.2073    
   1731000  -1810.6296      9.0626372     -1801.567       286.16985      3607.609       2683.2073    
   1732000  -1810.8292      8.2941578     -1802.535       261.90366      3301.6966      2683.2073    
   1733000  -1811.164       8.4438409     -1802.7201      266.63019      3361.2817      2683.2073    
   1734000  -1810.0319      8.4829588     -1801.549       267.86541      3376.8536      2683.2073    
   1735000  -1810.9408      8.8965064     -1802.0443      280.92396      3541.4765      2683.2073    
   1736000  -1811.5613      7.4894547     -1804.0718      236.49365      2981.3645      2683.2073    
   1737000  -1811.2534      8.727963      -1802.5254      275.60188      3474.3836      2683.2073    
   1738000  -1811.1769      8.5208003     -1802.6561      269.06032      3391.9173      2683.2073    
   1739000  -1812.3614      9.2558749     -1803.1055      292.27169      3684.5321      2683.2073    
   1740000  -1812.2754      9.4865388     -1802.7889      299.55534      3776.3537      2683.2073    
   1741000  -1811.3344      8.727729      -1802.6067      275.59449      3474.2905      2683.2073    
   1742000  -1811.5719      8.9407045     -1802.6312      282.31959      3559.0707      2683.2073    
   1743000  -1811.4709      8.6049656     -1802.8659      271.718        3425.4214      2683.2073    
   1744000  -1811.2065      9.2447635     -1801.9618      291.92083      3680.109       2683.2073    
   1745000  -1810.4171      9.2414451     -1801.1757      291.81604      3678.788       2683.2073    
   1746000  -1810.5419      8.6445633     -1801.8974      272.96837      3441.1843      2683.2073    
   1747000  -1811.3891      9.2133704     -1802.1757      290.92953      3667.6121      2683.2073    
   1748000  -1811.0414      9.6806521     -1801.3608      305.68483      3853.6253      2683.2073    
   1749000  -1811.4899      8.3107861     -1803.1791      262.42873      3308.3159      2683.2073    
   1750000  -1811.7722      8.8705907     -1802.9017      280.10562      3531.1601      2683.2073    
   1751000  -1811.9671      8.929215      -1803.0379      281.95679      3554.497       2683.2073    
   1752000  -1811.6031      8.7744446     -1802.8287      277.06962      3492.8868      2683.2073    
   1753000  -1811.9241      9.0413913     -1802.8827      285.49897      3599.1515      2683.2073    
   1754000  -1810.9743      8.5921919     -1802.3821      271.31465      3420.3365      2683.2073    
   1755000  -1810.8351      9.3055795     -1801.5295      293.84121      3704.3183      2683.2073    
   1756000  -1811.6235      9.0594501     -1802.564       286.06921      3606.3403      2683.2073    
   1757000  -1811.2036      8.5100917     -1802.6935      268.72218      3387.6545      2683.2073    
   1758000  -1810.7933      8.503976      -1802.2893      268.52907      3385.22        2683.2073    
   1759000  -1811.0086      8.6261807     -1802.3824      272.38791      3433.8666      2683.2073    
   1760000  -1810.8449      8.6512706     -1802.1937      273.18017      3443.8543      2683.2073    
   1761000  -1810.9923      9.0870395     -1801.9053      286.9404       3617.323       2683.2073    
   1762000  -1809.9253      8.4703839     -1801.455       267.46833      3371.8478      2683.2073    
   1763000  -1811.7283      8.6970308     -1803.0313      274.62514      3462.0703      2683.2073    
   1764000  -1810.9349      9.6722712     -1801.2626      305.42019      3850.2891      2683.2073    
   1765000  -1810.9417      9.1699994     -1801.7717      289.56001      3650.3472      2683.2073    
   1766000  -1811.6166      9.3864683     -1802.2301      296.39543      3736.5181      2683.2073    
   1767000  -1811.0407      8.5534784     -1802.4872      270.0922       3404.9257      2683.2073    
   1768000  -1809.9351      9.1997256     -1800.7354      290.49867      3662.1805      2683.2073    
   1769000  -1810.4397      8.8868335     -1801.5529      280.61851      3537.626       2683.2073    
   1770000  -1809.284       8.7296827     -1800.5543      275.65618      3475.0682      2683.2073    
   1771000  -1810.3248      8.2120054     -1802.1128      259.30954      3268.9938      2683.2073    
   1772000  -1811.0479      9.146101      -1801.9018      288.80537      3640.8339      2683.2073    
   1773000  -1809.2266      8.6823343     -1800.5443      274.16106      3456.2199      2683.2073    
   1774000  -1811.7392      9.52686       -1802.2123      300.82856      3792.4045      2683.2073    
   1775000  -1811.9576      9.4119001     -1802.5457      297.19848      3746.6418      2683.2073    
   1776000  -1811.2355      9.1222646     -1802.1132      288.05269      3631.3452      2683.2073    
   1777000  -1810.3085      8.7135845     -1801.5949      275.14785      3468.6599      2683.2073    
   1778000  -1811.9135      8.0246876     -1803.8888      253.39463      3194.4273      2683.2073    
   1779000  -1810.8393      9.4947818     -1801.3445      299.81563      3779.635       2683.2073    
   1780000  -1810.7088      8.3108914     -1802.3979      262.43206      3308.3578      2683.2073    
   1781000  -1811.4807      8.2538589     -1803.2269      260.63115      3285.6546      2683.2073    
   1782000  -1811.4407      9.3805435     -1802.0602      296.20834      3734.1596      2683.2073    
   1783000  -1810.3796      9.4346        -1800.945       297.91527      3755.6781      2683.2073    
   1784000  -1811.1107      9.031924      -1802.0788      285.20002      3595.3828      2683.2073    
   1785000  -1810.9025      8.9362287     -1801.9663      282.17826      3557.2889      2683.2073    
   1786000  -1811.2717      9.1449167     -1802.1268      288.76798      3640.3624      2683.2073    
   1787000  -1811.9488      8.4596819     -1803.4891      267.1304       3367.5876      2683.2073    
   1788000  -1810.7393      9.2052258     -1801.5341      290.67235      3664.37        2683.2073    
   1789000  -1810.7753      7.7866089     -1802.9887      245.87685      3099.6541      2683.2073    
   1790000  -1810.425       8.8710211     -1801.554       280.11921      3531.3314      2683.2073    
   1791000  -1809.8938      8.0724486     -1801.8214      254.90277      3213.4397      2683.2073    
   1792000  -1812.2755      9.320197      -1802.9553      294.30278      3710.1371      2683.2073    
   1793000  -1810.7211      9.4967019     -1801.2244      299.87626      3780.3993      2683.2073    
   1794000  -1810.7705      8.9421784     -1801.8283      282.36613      3559.6574      2683.2073    
   1795000  -1810.3526      9.5975669     -1800.7551      303.06126      3820.5511      2683.2073    
   1796000  -1810.9151      9.5605257     -1801.3546      301.89162      3805.806       2683.2073    
   1797000  -1810.87        9.168512      -1801.7015      289.51304      3649.7551      2683.2073    
   1798000  -1810.4818      8.5433804     -1801.9385      269.77334      3400.9059      2683.2073    
   1799000  -1811.4164      8.6507142     -1802.7657      273.1626       3443.6328      2683.2073    
   1800000  -1811.0074      8.5124124     -1802.495       268.79546      3388.5783      2683.2073    
   1801000  -1810.7545      9.3204315     -1801.4341      294.31019      3710.2305      2683.2073    
   1802000  -1811.8362      8.1777378     -1803.6584      258.22748      3255.3527      2683.2073    
   1803000  -1811.52        8.7755087     -1802.7445      277.10322      3493.3103      2683.2073    
   1804000  -1811.2475      9.2289465     -1802.0186      291.42138      3673.8126      2683.2073    
   1805000  -1812.4819      9.1008406     -1803.381       287.37619      3622.8169      2683.2073    
   1806000  -1811.2629      8.7160788     -1802.5468      275.22661      3469.6528      2683.2073    
   1807000  -1810.2559      8.9487908     -1801.3072      282.57493      3562.2896      2683.2073    
   1808000  -1810.5475      8.7017319     -1801.8458      274.77358      3463.9416      2683.2073    
   1809000  -1811.1008      8.9063847     -1802.1944      281.23588      3545.4088      2683.2073    
   1810000  -1811.5971      8.9319089     -1802.6652      282.04185      3555.5694      2683.2073    
   1811000  -1812.5165      9.0257217     -1803.4908      285.00417      3592.9139      2683.2073    
   1812000  -1811.0322      8.6756725     -1802.3566      273.95071      3453.5681      2683.2073    
   1813000  -1810.712       10.730902     -1799.9811      338.84844      4271.7034      2683.2073    
   1814000  -1811.1561      7.9773305     -1803.1787      251.89924      3175.5756      2683.2073    
   1815000  -1811.524       8.4353761     -1803.0886      266.3629       3357.9121      2683.2073    
   1816000  -1811.7641      8.975389      -1802.7887      283.41482      3572.8777      2683.2073    
   1817000  -1811.647       8.5676755     -1803.0793      270.5405       3410.5772      2683.2073    
   1818000  -1810.6274      8.1167188     -1802.5107      256.30069      3231.0626      2683.2073    
   1819000  -1810.3772      9.9866305     -1800.3905      315.34668      3975.4276      2683.2073    
   1820000  -1810.3274      9.3792924     -1800.9481      296.16883      3733.6615      2683.2073    
   1821000  -1812.2218      8.5169778     -1803.7048      268.93962      3390.3957      2683.2073    
   1822000  -1811.9038      9.1365416     -1802.7672      288.50352      3637.0285      2683.2073    
   1823000  -1811.622       8.5290346     -1803.0929      269.32034      3395.1952      2683.2073    
   1824000  -1811.657       9.2353741     -1802.4216      291.62434      3676.3712      2683.2073    
   1825000  -1810.9241      8.1349456     -1802.7891      256.87624      3238.3182      2683.2073    
