240
Lattice="10.14037718 0.0 0.0 0.0 8.78182424 0.0 0.0 0.0 33.131127158" Properties=species:S:1:pos:R:3:momenta:R:3:forces:R:3:charge:R:1 target_atoms="0 1 2 3 4 5 6 7 8 9 10 11 12 13 14 15 16 17 18 19 20 21 22 23 24 25 26 27 28 29 30 31 32 33 34 35 36 37 38 39 40 41 42 43 44 45 46 47 48 49 50 51 52 53 54 55 56 57 58 59 60 61 62 63 64 65 66 67 68 69 70 71 72 73 74 75 76 77 78 79 80 81 82 83 84 85 86 87 88 89 90 91 92 93 94 95 96 97 98 99 100 101 102 103 104 105 106 107 108 109 110 111 112 113 114 115 116 117 118 119 120 121 122 123 124 125 126 127 128 129 130 131 132 133 134 135 136 137 138 139 140 141 142 143 144 145 146 147 148 149 150 151 152 153 154 155 156 157 158 159 160 161 162 163 164 165 166 167 168 169 170 171 172 173 174 175 176 177 178 179 180 181 182 183 184 185 186 187 188 189 190 191 192 193 194 195 196 197 198 199 200 201 202 203 204 205 206 207 208 209 210 211 212 213 214 215 216 217 218 219 220 221 222 223 224 225 226 227 228 229 230 231 232 233 234 235 236 237 238 239" step=0 energy=-1778.45171404 stress="0.011513655710934713 0.0012187545209747205 -0.002427678665076174 0.0012187545209747205 0.013298465177554038 0.0005445154976511814 -0.002427678665076174 0.0005445154976511814 0.009458220650126218" free_energy=-1778.55339312 pbc="T T T"
Cu       6.92030000       1.18860000      11.88240000       0.00000000       0.00000000       0.00000000       0.50426900      -0.04186800       0.29539200      -0.03577400
Cu       9.55050000       1.24360000      11.89770000       0.00000000       0.00000000       0.00000000      -0.68936700      -0.55133600       0.00608100      -0.01780100
Cu       1.81510000       1.10410000      11.94150000       0.00000000       0.00000000       0.00000000       1.03168000       0.31331200      -0.76651800      -0.05839000
Cu       4.45150000       1.16020000      11.66620000       0.00000000       0.00000000       0.00000000      -0.03113400      -0.07145400       0.55215800       0.12049100
Cu       8.31660000       3.40890000      11.97300000       0.00000000       0.00000000       0.00000000      -0.37247500      -0.39759000      -0.16041200      -0.10778800
Cu       0.74720000       3.31790000      11.84810000       0.00000000       0.00000000       0.00000000      -0.43273700       0.34620500       0.17148900       0.03706700
Cu       3.20010000       3.34080000      11.98000000       0.00000000       0.00000000       0.00000000       0.24367200      -0.47083200      -0.22530100      -0.03548000
Cu       5.75860000       3.48580000      11.95840000       0.00000000       0.00000000       0.00000000       0.26326700      -1.22271300       0.10547300      -0.05253400
Cu       9.48840000       5.54020000      11.91550000       0.00000000       0.00000000       0.00000000       0.33817500       0.00078600      -0.11128900      -0.04751700
Cu       2.02170000       5.38180000      11.83970000       0.00000000       0.00000000       0.00000000      -0.21311600       0.73535100       0.18228700      -0.05147700
Cu       4.54780000       5.46850000      11.81380000       0.00000000       0.00000000       0.00000000      -0.53788600       0.87483200       0.26137100      -0.02825500
Cu       7.02810000       5.47570000      11.86970000       0.00000000       0.00000000       0.00000000       0.06422900       0.39780100       0.08249400      -0.09179600
Cu       0.60600000       7.73480000      11.70900000       0.00000000       0.00000000       0.00000000       0.09927900      -0.11243500       0.13151700       0.13317200
Cu       3.17170000       7.67330000      11.84850000       0.00000000       0.00000000       0.00000000       0.25561300       0.07886000       0.38208000      -0.01254000
Cu       5.84050000       7.68560000      11.86130000       0.00000000       0.00000000       0.00000000      -0.93584600       0.15162900       0.26187300      -0.02584300
Cu       8.17440000       7.71990000      11.98090000       0.00000000       0.00000000       0.00000000       0.82610000       0.31805200      -0.32658300      -0.06921800
Cu       5.74900000       1.90230000      13.94880000       0.00000000       0.00000000       0.00000000      -0.27040800      -0.35380900      -0.20107900       0.02499400
Cu       8.26020000       1.90480000      13.93050000       0.00000000       0.00000000       0.00000000       0.18460900      -0.40460900       0.16384100       0.01565100
Cu       0.67980000       1.90020000      13.85380000       0.00000000       0.00000000       0.00000000      -0.42545500       0.41902200       1.01040300       0.02426500
Cu       3.26980000       1.90000000      13.99900000       0.00000000       0.00000000       0.00000000      -0.23466700      -0.22375800      -0.46788400       0.01797300
Cu       6.95560000       3.99180000      14.13000000       0.00000000       0.00000000       0.00000000       0.31199200       0.54298100      -1.00963100       0.01201300
Cu       9.49780000       4.12200000      13.95700000       0.00000000       0.00000000       0.00000000       0.51538100      -0.15538000       0.18684800       0.02126000
Cu       1.99100000       4.04990000      14.04070000       0.00000000       0.00000000       0.00000000      -0.61683700       0.12521400      -0.44005800       0.01528500
Cu       4.47760000       4.11450000      13.91690000       0.00000000       0.00000000       0.00000000      -0.01258700      -0.21400300       0.50053200       0.02182500
Cu       8.17680000       6.22990000      13.90610000       0.00000000       0.00000000       0.00000000       0.64201000      -0.00116500       0.51385300       0.03106600
Cu       0.73160000       6.30920000      13.73770000       0.00000000       0.00000000       0.00000000      -0.03366900      -0.18662000       0.69543200       0.01743400
Cu       3.22070000       6.22320000      13.93860000       0.00000000       0.00000000       0.00000000      -0.01432000       0.54927800      -0.16040000       0.01042000
Cu       5.77780000       6.23460000      13.94000000       0.00000000       0.00000000       0.00000000      -0.51478200       0.26829300      -0.00363100       0.02056400
Cu       9.57710000       8.37260000      14.01290000       0.00000000       0.00000000       0.00000000      -0.33194700       0.42085700      -0.60647300       0.02243000
Cu       1.86060000       8.60030000      13.85250000       0.00000000       0.00000000       0.00000000       0.63087700      -1.18625300       0.61668600       0.02162600
Cu       4.48430000       8.51010000      13.97460000       0.00000000       0.00000000       0.00000000      -0.11737800      -0.31822200      -0.61113400       0.01920400
Cu       7.04420000       8.45790000      13.98870000       0.00000000       0.00000000       0.00000000      -0.37197700       0.22013600      -0.06313900       0.01798100
Cu       5.70400000       0.36590000      16.03060000       0.00000000       0.00000000       0.00000000       0.06660800       0.00334700       0.03719300       0.00477800
Cu       8.23910000       0.36590000      16.03060000       0.00000000       0.00000000       0.00000000       0.07137000       0.05222500       0.02378700      -0.02117300
Cu       0.63380000       0.36590000      16.03060000       0.00000000       0.00000000       0.00000000       0.09476400       0.07809200      -0.09092800      -0.00196800
Cu       3.16890000       0.36590000      16.03060000       0.00000000       0.00000000       0.00000000      -0.07034700      -0.07705000      -0.11662400       0.03024600
Cu       6.97150000       2.56140000      16.03060000       0.00000000       0.00000000       0.00000000       0.05816400      -0.32525100       0.37673500      -0.01772000
Cu       9.50660000       2.56140000      16.03060000       0.00000000       0.00000000       0.00000000       0.07611000       0.01055000      -0.17868800       0.03229400
Cu       1.90130000       2.56140000      16.03060000       0.00000000       0.00000000       0.00000000      -0.04355600      -0.12716400       0.00599100       0.00429200
Cu       4.43640000       2.56140000      16.03060000       0.00000000       0.00000000       0.00000000       0.11663600       0.08836100       0.10935200       0.01562000
Cu       8.23910000       4.75680000      16.03060000       0.00000000       0.00000000       0.00000000       0.15270700       0.14143600       0.21451000      -0.00199800
Cu       0.63380000       4.75680000      16.03060000       0.00000000       0.00000000       0.00000000      -0.01485600       0.16623000      -0.14125700       0.02363700
Cu       3.16890000       4.75680000      16.03060000       0.00000000       0.00000000       0.00000000       0.14741400       0.08928000       0.12939900       0.00719100
Cu       5.70400000       4.75680000      16.03060000       0.00000000       0.00000000       0.00000000      -0.17390200       0.14964500       0.28802700      -0.01821300
Cu       9.50660000       6.95230000      16.03060000       0.00000000       0.00000000       0.00000000       0.07525900      -0.21859400      -0.17721600       0.00678100
Cu       1.90130000       6.95230000      16.03060000       0.00000000       0.00000000       0.00000000      -0.05765900       0.04352600      -0.40320800       0.02945100
Cu       4.43640000       6.95230000      16.03060000       0.00000000       0.00000000       0.00000000       0.02036500       0.01882300      -0.15058500       0.00304100
Cu       6.97150000       6.95230000      16.03060000       0.00000000       0.00000000       0.00000000       0.04434600      -0.01729700      -0.00791300      -0.01789600
Cu       6.97150000       1.09770000      18.10050000       0.00000000       0.00000000       0.00000000      -0.11344200      -0.05808300       0.18117000       0.02280800
Cu       9.50660000       1.09770000      18.10050000       0.00000000       0.00000000       0.00000000       0.01710500      -0.03918800      -0.11848300      -0.00275900
Cu       1.90130000       1.09770000      18.10050000       0.00000000       0.00000000       0.00000000       0.06179300      -0.15594400      -0.04711100       0.00663100
Cu       4.43640000       1.09770000      18.10050000       0.00000000       0.00000000       0.00000000       0.11321800      -0.06042900       0.13313100      -0.01781400
Cu       8.23910000       3.29320000      18.10050000       0.00000000       0.00000000       0.00000000       0.01398800       0.17785600       0.19959100       0.00079600
Cu       0.63380000       3.29320000      18.10050000       0.00000000       0.00000000       0.00000000      -0.04372300      -0.02062200      -0.07243100      -0.01573300
Cu       3.16890000       3.29320000      18.10050000       0.00000000       0.00000000       0.00000000       0.13701600       0.15459600      -0.04832400       0.03308400
Cu       5.70400000       3.29320000      18.10050000       0.00000000       0.00000000       0.00000000       0.13776600      -0.02651900       0.20205900       0.00874900
Cu       9.50660000       5.48860000      18.10050000       0.00000000       0.00000000       0.00000000       0.10751000      -0.03121600       0.15662100      -0.02497500
Cu       1.90130000       5.48860000      18.10050000       0.00000000       0.00000000       0.00000000      -0.09352200       0.07258300       0.21046200       0.00619100
Cu       4.43640000       5.48860000      18.10050000       0.00000000       0.00000000       0.00000000      -0.03228400       0.01395800       0.12509700       0.02250900
Cu       6.97150000       5.48860000      18.10050000       0.00000000       0.00000000       0.00000000       0.12165000       0.00520000       0.04740000      -0.00295100
Cu       0.63380000       7.68410000      18.10050000       0.00000000       0.00000000       0.00000000       0.05493700      -0.08509100       0.01320000       0.00536500
Cu       3.16890000       7.68410000      18.10050000       0.00000000       0.00000000       0.00000000      -0.01259000      -0.11236700       0.02992500      -0.02717900
Cu       5.70400000       7.68410000      18.10050000       0.00000000       0.00000000       0.00000000      -0.01340300      -0.02661700       0.18055800      -0.00367200
Cu       8.23910000       7.68410000      18.10050000       0.00000000       0.00000000       0.00000000      -0.06261700       0.02448000       0.32343800       0.03363200
Cu       5.66830000       1.80820000      20.27050000       0.00000000       0.00000000       0.00000000       0.34162100      -0.05211600      -0.72233800       0.03142900
Cu       8.24050000       1.83150000      20.10680000       0.00000000       0.00000000       0.00000000       0.01433000       0.13566300      -0.01504500       0.01626200
Cu       0.69350000       1.73440000      20.14030000       0.00000000       0.00000000       0.00000000      -0.08528500      -0.05055100       0.08880200       0.02782000
Cu       3.19040000       1.87380000      20.12200000       0.00000000       0.00000000       0.00000000       0.14890000      -0.58435500      -0.07126600       0.00876500
Cu       7.03740000       4.11680000      20.27430000       0.00000000       0.00000000       0.00000000       0.27661200      -0.83953900      -0.25556400       0.02079200
Cu       9.67560000       3.96950000      20.24980000       0.00000000       0.00000000       0.00000000      -1.04862100       0.01717500      -0.34661800       0.03504800
Cu       1.90140000       3.92200000      20.14850000       0.00000000       0.00000000       0.00000000       0.47442900       0.66889700       0.06207700       0.02227400
Cu       4.56540000       3.97830000      20.21210000       0.00000000       0.00000000       0.00000000      -0.57299200       0.17661600       0.10037700       0.02868800
Cu       8.36660000       6.15240000      20.20260000       0.00000000       0.00000000       0.00000000      -0.72065700       0.35847700      -0.07742000       0.01637900
Cu       0.58640000       6.21150000      20.29600000       0.00000000       0.00000000       0.00000000       0.78879900      -0.24338700      -0.29814300       0.02279000
Cu       3.15110000       6.06620000      20.22130000       0.00000000       0.00000000       0.00000000       0.22508900       0.26391600       0.19835000       0.01234900
Cu       5.76790000       6.10310000      20.17410000       0.00000000       0.00000000       0.00000000      -0.37598700       0.62692300       0.12148900       0.02586000
Cu       9.60480000       8.40310000      20.15990000       0.00000000       0.00000000       0.00000000      -0.74830300      -0.13320600       0.27145700       0.02344100
Cu       1.94610000       8.29540000      20.19810000       0.00000000       0.00000000       0.00000000      -0.08165500       0.20893900       0.09789700       0.02310400
Cu       4.37610000       8.32770000      20.20220000       0.00000000       0.00000000       0.00000000       0.40958100      -0.07778300      -0.47052200       0.00770900
Cu       6.80780000       8.38410000      20.27980000       0.00000000       0.00000000       0.00000000       0.90259700      -0.08705600      -0.50182400       0.01395800
Cu       5.84140000       0.50330000      22.32930000       0.00000000       0.00000000       0.00000000      -0.48881200      -1.03090900       0.15020900      -0.02101800
Cu       8.28270000       0.55670000      22.11010000       0.00000000       0.00000000       0.00000000       0.05829300      -1.41720300       0.23396500      -0.03825700
Cu       0.64020000       0.23390000      22.27780000       0.00000000       0.00000000       0.00000000       0.32072000       0.25209500      -0.50017300      -0.00084600
Cu       3.31890000       0.38850000      22.11240000       0.00000000       0.00000000       0.00000000      -0.56347400      -0.25239900       0.37106800      -0.08171100
Cu       7.00780000       2.54650000      22.19880000       0.00000000       0.00000000       0.00000000       0.23978200       0.56557700      -0.01347600      -0.04381500
Cu       9.66410000       2.44340000      22.17460000       0.00000000       0.00000000       0.00000000      -0.26749400       0.42755600       0.20825300      -0.04470100
Cu       1.99490000       2.53930000      22.14950000       0.00000000       0.00000000       0.00000000      -0.28976300      -0.72967300       0.38582700      -0.07445000
Cu       4.44750000       2.50000000      22.26290000       0.00000000       0.00000000       0.00000000       0.21617200       0.20323700      -0.03402500      -0.05167100
Cu       8.30510000       4.68030000      22.35470000       0.00000000       0.00000000       0.00000000       0.15007200      -0.26144700      -0.27028500       0.04720300
Cu       0.70270000       4.59750000      22.30630000       0.00000000       0.00000000       0.00000000      -0.03731500       0.37232700      -0.13844900       0.00632300
Cu       3.20630000       4.57350000      22.36520000       0.00000000       0.00000000       0.00000000       0.08155300       0.66832700      -0.75312400      -0.01815700
Cu       5.74200000       4.72050000      22.36470000       0.00000000       0.00000000       0.00000000      -0.02011000      -0.12922300      -0.04288200       0.17869900
Cu       9.45140000       6.79920000      22.29860000       0.00000000       0.00000000       0.00000000       0.41073200       0.75561100       0.17127100       0.08309200
Cu       1.89480000       6.83310000      22.27440000       0.00000000       0.00000000       0.00000000       0.52656100       0.09805300       0.20487700       0.13089200
Cu       4.61100000       6.96380000      22.25050000       0.00000000       0.00000000       0.00000000      -0.48469600      -0.00028800      -0.45128400      -0.01716400
Cu       7.01800000       6.87600000      22.21610000       0.00000000       0.00000000       0.00000000       0.05951600       0.25838500      -0.19211800      -0.01999800
O        7.41400000       2.14050000       8.75290000       0.00000000       0.00000000       0.00000000      -2.25247400      -0.98184400      -0.46241100      -1.34218200
O        6.10400000       6.91670000       8.17440000       0.00000000       0.00000000       0.00000000      -0.74348900      -0.10231300      -0.16835000      -1.31109200
O        4.62230000       6.73830000      31.17520000       0.00000000       0.00000000       0.00000000       0.80139000      -1.13633800      -0.60384100      -1.30818500
O        0.96150000       1.67380000       6.55600000       0.00000000       0.00000000       0.00000000      -0.06461100       1.16086800      -1.77910000      -1.25507700
O        3.01000000       3.54740000       8.60650000       0.00000000       0.00000000       0.00000000      -1.19508500       2.62462800       1.31570700      -1.26508900
O        2.00350000       2.92890000      29.82340000       0.00000000       0.00000000       0.00000000       1.27600600      -1.46806200       1.55630600      -1.39641100
O        8.73060000       8.23400000       8.09010000       0.00000000       0.00000000       0.00000000      -0.54804100       0.86154400      -0.06122700      -1.35206400
O        3.06750000       0.06910000      31.96790000       0.00000000       0.00000000       0.00000000       0.05305800       0.47589900       0.40311800      -1.31719000
O        6.26840000       6.09000000       5.54370000       0.00000000       0.00000000       0.00000000      -0.43452900      -0.19481100      -0.41363200      -1.32526000
O        9.02280000       4.97920000      25.11470000       0.00000000       0.00000000       0.00000000       0.49170500      -2.63714500       0.97486900      -1.33090000
O        8.98320000       0.96410000       0.55320000       0.00000000       0.00000000       0.00000000      -0.71735500       0.49956400      -0.55501900      -1.30914800
O        3.70520000       4.79880000       5.99030000       0.00000000       0.00000000       0.00000000       1.26481900       0.90618400      -0.81926500      -1.32838800
O        6.45270000       1.12550000      27.99930000       0.00000000       0.00000000       0.00000000      -2.06435500       0.48394600      -0.75552000      -1.33198700
O        2.35790000       6.89460000      24.37960000       0.00000000       0.00000000       0.00000000       3.28684100       0.91208400       1.64217000      -1.29102500
O        0.70350000       7.33240000       9.43250000       0.00000000       0.00000000       0.00000000       0.33816500      -0.25826000       1.81953800      -1.37144000
O        9.99000000       7.36040000       5.57640000       0.00000000       0.00000000       0.00000000       0.30699500      -0.96458700      -1.17057000      -1.33146300
O        6.23360000       1.76030000       1.51890000       0.00000000       0.00000000       0.00000000       3.87193100      -2.76375300       0.75611600      -1.37203900
O        4.69130000       5.88730000      28.22480000       0.00000000       0.00000000       0.00000000      -0.51626700       0.67686000       0.14166400      -1.32013600
O        8.20000000       3.76190000       6.14640000       0.00000000       0.00000000       0.00000000       0.82089000      -0.90206400       0.60535500      -1.27891900
O        0.41370000       2.71120000       9.07510000       0.00000000       0.00000000       0.00000000      -1.13011000       2.30364300       1.08861900      -1.31821900
O        1.32180000       0.12080000      25.71960000       0.00000000       0.00000000       0.00000000      -0.94615100      -0.59738200      -0.00015900      -1.34573600
O        0.21240000       0.88380000       3.95830000       0.00000000       0.00000000       0.00000000       0.50800700      -0.19088800       0.29546500      -1.29877400
O        8.73270000       4.90070000       8.93470000       0.00000000       0.00000000       0.00000000      -0.79599800      -0.86717100       0.23990300      -1.30213300
O        4.78110000       1.57930000       9.34230000       0.00000000       0.00000000       0.00000000       0.22503600      -1.41678000       0.20516000      -1.35674500
O        1.03400000       7.82130000      28.59260000       0.00000000       0.00000000       0.00000000       0.60273500       2.38952000      -0.50584700      -1.28303800
O        1.86820000       5.09280000      28.22610000       0.00000000       0.00000000       0.00000000      -1.31275200      -0.06172500       0.03549300      -1.31183500
O        3.35770000       1.58120000      25.14010000       0.00000000       0.00000000       0.00000000       1.19206000      -0.83314700       0.13310400      -1.24485500
O        8.10370000       2.52500000      25.74910000       0.00000000       0.00000000       0.00000000      -0.28786100      -1.19707300       1.56276100      -1.21763500
O        8.47130000       8.60920000      29.57260000       0.00000000       0.00000000       0.00000000       1.58930900       1.10408100      -2.37422600      -1.32246300
O        5.65710000       4.41150000       9.11050000       0.00000000       0.00000000       0.00000000      -0.80656900       0.87150000      -1.22770100      -1.31917600
O        1.18350000       2.33630000       1.90470000       0.00000000       0.00000000       0.00000000       0.36057000      -0.97672300       0.47970400      -1.31165400
O        1.69920000       4.49970000      25.37090000       0.00000000       0.00000000       0.00000000       0.75332700      -0.69787200      -1.40605900      -1.29437400
O        2.39690000       6.91640000       6.63410000       0.00000000       0.00000000       0.00000000      -0.72408000       0.10146400      -0.19197100      -1.35906400
O        4.54880000       3.73310000      31.24840000       0.00000000       0.00000000       0.00000000      -0.85241200       1.43810500       1.03536000      -1.28986000
O        7.43040000       6.16480000       3.00700000       0.00000000       0.00000000       0.00000000      -0.42612200      -0.50385700       0.54480200      -1.31597900
O        5.57650000       4.49590000      24.45290000       0.00000000       0.00000000       0.00000000       0.04490300       1.40887900       0.06955900      -1.32363200
O        3.36200000       8.16890000       8.79200000       0.00000000       0.00000000       0.00000000       0.42087800      -0.11872300      -0.77362600      -1.33608800
O        3.97740000       2.33090000       0.46910000       0.00000000       0.00000000       0.00000000       0.46349100      -0.85409000      -0.32852800      -1.33938700
O        9.07780000       7.53050000      24.61190000       0.00000000       0.00000000       0.00000000      -2.28001300       0.13950800      -1.58723600      -1.38056000
O        4.91000000       6.75140000      25.54500000       0.00000000       0.00000000       0.00000000      -0.70567000      -0.57934100       0.73039500      -1.35588600
O        3.60230000       0.99160000      29.16320000       0.00000000       0.00000000       0.00000000       0.61819000      -0.78244800      -0.58040300      -1.36586100
O        6.42820000       4.10320000      29.42600000       0.00000000       0.00000000       0.00000000       0.42667700      -0.67834300      -0.11807100      -1.29592100
O        8.47480000       3.55260000       2.54850000       0.00000000       0.00000000       0.00000000      -0.12871700      -0.19856500       0.69173800      -1.27716900
O        6.67970000       8.46880000      25.53750000       0.00000000       0.00000000       0.00000000       0.20456200       0.38146900      -0.37212300      -1.36507000
O        0.16300000       1.30360000      30.95550000       0.00000000       0.00000000       0.00000000       2.16706700       1.25038400       1.87711400      -1.35774500
O        7.79390000       0.96170000       3.82430000       0.00000000       0.00000000       0.00000000       0.12748500      -2.19914100       1.34413600      -1.27602700
O        7.61230000       6.10740000      31.45810000       0.00000000       0.00000000       0.00000000       0.23556800       0.96341100       0.60077800      -1.27668500
O        7.60170000       7.53620000       0.79330000       0.00000000       0.00000000       0.00000000      -1.25220400      -1.59878200       1.01128700      -1.34860800
H        3.37640000       6.82880000      24.77010000       0.00000000       0.00000000       0.00000000      -2.21311500      -0.18672000      -1.24084900       0.61584000
H        6.04960000       6.03320000       8.61910000       0.00000000       0.00000000       0.00000000       0.08850700      -0.04544000      -0.03674600       0.67232500
H        5.54850000       6.88440000      31.41630000       0.00000000       0.00000000       0.00000000       0.09319700      -0.18488600      -0.04930700       0.64463100
H        5.17180000       7.20960000       8.25850000       0.00000000       0.00000000       0.00000000       0.75458500       0.20875400       0.12799600       0.62979100
H        7.82030000       2.35440000       9.59200000       0.00000000       0.00000000       0.00000000       0.23406800      -0.03417900       0.85190600       0.61150000
H        4.10350000       7.27520000      31.75680000       0.00000000       0.00000000       0.00000000      -0.69556100       0.89624000       0.50619000       0.67264600
H        1.20120000       2.62140000       6.34020000       0.00000000       0.00000000       0.00000000      -0.18133000      -1.52861200       0.60315000       0.59836800
H        0.75370000       1.31970000       5.63400000       0.00000000       0.00000000       0.00000000       0.16723900       0.43938900       1.16342400       0.63701400
H        4.44020000       6.48910000      28.95950000       0.00000000       0.00000000       0.00000000       0.59620700      -0.56230900      -0.35300100       0.62922200
H        1.61060000       3.63500000      29.35750000       0.00000000       0.00000000       0.00000000      -1.00887600       1.66132100      -1.06877400       0.69829900
H        7.94980000       7.65370000       8.16340000       0.00000000       0.00000000       0.00000000      -0.12457200       0.26797600       0.11250600       0.66688100
H        1.34660000       2.40340000      30.32090000       0.00000000       0.00000000       0.00000000      -0.37741000       0.13447700      -0.21780200       0.69571800
H        3.23480000       4.49580000       8.91430000       0.00000000       0.00000000       0.00000000       0.11954500      -2.14948500      -0.53736500       0.59179300
H        8.38200000       0.35640000       8.34430000       0.00000000       0.00000000       0.00000000       0.20943100      -0.87234200      -0.23007500       0.68405400
H        3.24390000       0.70190000      32.70390000       0.00000000       0.00000000       0.00000000      -0.26200100      -0.26460700      -0.58010400       0.66495800
H        2.18790000       0.26860000      31.61320000       0.00000000       0.00000000       0.00000000       0.01298400       0.00557300       0.22426800       0.65399700
H        9.38810000       1.07140000       3.85400000       0.00000000       0.00000000       0.00000000       0.20471100      -0.36328700      -0.09889000       0.66157200
H        8.62720000       4.04680000      25.29380000       0.00000000       0.00000000       0.00000000      -0.00001100       1.88180700      -0.34899100       0.66616100
H        8.25140000       1.58780000       0.70570000       0.00000000       0.00000000       0.00000000      -0.03341300      -0.40490800      -0.25082100       0.64313800
H        9.95390000       4.71740000      25.37540000       0.00000000       0.00000000       0.00000000      -0.46070900       0.81522600      -0.66514300       0.65019900
H        6.70820000       5.24290000       5.64120000       0.00000000       0.00000000       0.00000000       0.39669400      -0.44529900       0.06753800       0.64107700
H        9.69500000       1.42500000       0.97720000       0.00000000       0.00000000       0.00000000       1.32482900       0.42289800       0.83523100       0.67298100